
     Program PWSCF v.6.8 starts on 18Feb2022 at  8: 6:25 

     This program is part of the open-source Quantum ESPRESSO suite
     for quantum simulation of materials; please cite
         "P. Giannozzi et al., J. Phys.:Condens. Matter 21 395502 (2009);
         "P. Giannozzi et al., J. Phys.:Condens. Matter 29 465901 (2017);
         "P. Giannozzi et al., J. Chem. Phys. 152 154105 (2020);
          URL http://www.quantum-espresso.org", 
     in publications or presentations arising from this work. More details at
     http://www.quantum-espresso.org/quote

     Parallel version (MPI), running on    16 processors

     MPI processes distributed on     1 nodes
     R & G space division:  proc/nbgrp/npool/nimage =      16
     26966 MiB available memory on the printing compute node when the environment starts

     Waiting for input...
     Reading input from standard input

     Current dimensions of program PWSCF are:
     Max number of different atomic species (ntypx) = 10
     Max number of k-points (npk) =  40000
     Max angular momentum in pseudopotentials (lmaxx) =  4
     file Ca.pbe-spn-kjpaw_psl.1.0.0.UPF: wavefunction(s)  3S renormalized
     file P.pbe-n-kjpaw_psl.1.0.0.UPF: wavefunction(s)  3S 3P renormalized
     file Al.pbe-n-kjpaw_psl.1.0.0.UPF: wavefunction(s)  3S 3P renormalized

     Subspace diagonalization in iterative solution of the eigenvalue problem:
     a serial algorithm will be used


     Parallelization info
     --------------------
     sticks:   dense  smooth     PW     G-vecs:    dense   smooth      PW
     Min         885     582    154                79334    42256    5808
     Max         887     583    155                79338    42259    5813
     Sum       14177    9313   2477              1269383   676125   92973

     Using Slab Decomposition



     bravais-lattice index     =            0
     lattice parameter (alat)  =      25.5000  a.u.
     unit-cell volume          =   16581.3750 (a.u.)^3
     number of atoms/cell      =           54
     number of atomic types    =            3
     number of electrons       =       248.00
     number of Kohn-Sham states=          149
     kinetic-energy cutoff     =      45.0000  Ry
     charge density cutoff     =     274.0000  Ry
     scf convergence threshold =      5.0E-05
     mixing beta               =       0.1500
     number of iterations used =            8  plain     mixing
     energy convergence thresh.=      1.0E-04
     force convergence thresh. =      1.0E-03
     Exchange-correlation= SLA  PW   PBX  PBC
                           (   1   4   3   4   0   0   0)
     nstep                     =          100


     celldm(1)=  25.500000  celldm(2)=   0.000000  celldm(3)=   0.000000
     celldm(4)=   0.000000  celldm(5)=   0.000000  celldm(6)=   0.000000

     crystal axes: (cart. coord. in units of alat)
               a(1) = (   1.000000   0.000000   0.000000 )  
               a(2) = (   0.000000   1.000000   0.000000 )  
               a(3) = (   0.000000   0.000000   1.000000 )  

     reciprocal axes: (cart. coord. in units 2 pi/alat)
               b(1) = (  1.000000  0.000000  0.000000 )  
               b(2) = (  0.000000  1.000000  0.000000 )  
               b(3) = (  0.000000  0.000000  1.000000 )  


     PseudoPot. # 1 for Ca read from file:
     /home/ftc/Programs/ClathraGen/pseudo/Ca.pbe-spn-kjpaw_psl.1.0.0.UPF
     MD5 check sum: 2623b5cbb8d9293725b68412f6bd45d7
     Pseudo is Projector augmented-wave + core cor, Zval = 10.0
     Generated using 'atomic' code by A. Dal Corso  v.7.0
     Shape of augmentation charge: PSQ
     Using radial grid of 1169 points,  6 beta functions with: 
                l(1) =   0
                l(2) =   0
                l(3) =   1
                l(4) =   1
                l(5) =   2
                l(6) =   2
     Q(r) pseudized with 0 coefficients 


     PseudoPot. # 2 for P  read from file:
     /home/ftc/Programs/ClathraGen/pseudo/P.pbe-n-kjpaw_psl.1.0.0.UPF
     MD5 check sum: c82f2475a3b7af260088df8478cec3ac
     Pseudo is Projector augmented-wave + core cor, Zval =  5.0
     Generated using 'atomic' code by A. Dal Corso  v.7.0
     Shape of augmentation charge: PSQ
     Using radial grid of 1147 points,  6 beta functions with: 
                l(1) =   0
                l(2) =   0
                l(3) =   1
                l(4) =   1
                l(5) =   2
                l(6) =   2
     Q(r) pseudized with 0 coefficients 


     PseudoPot. # 3 for Al read from file:
     /home/ftc/Programs/ClathraGen/pseudo/Al.pbe-n-kjpaw_psl.1.0.0.UPF
     MD5 check sum: 813e5c304d30cf7255b9f0c034b866ee
     Pseudo is Projector augmented-wave + core cor, Zval =  3.0
     Generated using 'atomic' code by A. Dal Corso  v.7.0
     Shape of augmentation charge: PSQ
     Using radial grid of 1135 points,  6 beta functions with: 
                l(1) =   0
                l(2) =   0
                l(3) =   1
                l(4) =   1
                l(5) =   2
                l(6) =   2
     Q(r) pseudized with 0 coefficients 


     atomic species   valence    mass     pseudopotential
        Ca            10.00    40.07800     Ca( 1.00)
        P              5.00    30.97400     P ( 1.00)
        Al             3.00    26.98200     Al( 1.00)

     No symmetry found



   Cartesian axes

     site n.     atom                  positions (alat units)
         1           Ca  tau(   1) = (   0.0000000   0.0000000   0.0000000  )
         2           Ca  tau(   2) = (   0.5000000   0.5000000   0.5000000  )
         3           Ca  tau(   3) = (   0.0000000   0.5000000   0.2500000  )
         4           Ca  tau(   4) = (   0.0000000   0.5000000   0.7500000  )
         5           Ca  tau(   5) = (   0.2500000   0.0000000   0.5000000  )
         6           Ca  tau(   6) = (   0.7500000   0.0000000   0.5000000  )
         7           Ca  tau(   7) = (   0.5000000   0.2500000   0.0000000  )
         8           Ca  tau(   8) = (   0.5000000   0.7500000   0.0000000  )
         9           Al  tau(   9) = (   0.1838074   0.1838074   0.1838074  )
        10           Al  tau(  10) = (  -0.1838074  -0.1838074  -0.1838074  )
        11           Al  tau(  11) = (   0.1838074  -0.1838074  -0.1838074  )
        12           Al  tau(  12) = (  -0.1838074   0.1838074  -0.1838074  )
        13           P   tau(  13) = (  -0.1838074  -0.1838074   0.1838074  )
        14           Al  tau(  14) = (  -0.1838074   0.1838074   0.1838074  )
        15           Al  tau(  15) = (   0.1838074  -0.1838074   0.1838074  )
        16           Al  tau(  16) = (   0.1838074   0.1838074  -0.1838074  )
        17           P   tau(  17) = (   0.0000000   0.1175974   0.3071553  )
        18           Al  tau(  18) = (   0.0000000  -0.1175974  -0.3071553  )
        19           P   tau(  19) = (   0.3071553   0.0000000   0.1175974  )
        20           Al  tau(  20) = (  -0.3071553  -0.0000000  -0.1175974  )
        21           P   tau(  21) = (   0.1175974   0.3071553   0.0000000  )
        22           Al  tau(  22) = (  -0.1175974  -0.3071553   0.0000000  )
        23           P   tau(  23) = (   0.0000000   0.1175974  -0.3071553  )
        24           Al  tau(  24) = (   0.0000000  -0.1175974   0.3071553  )
        25           Al  tau(  25) = (  -0.3071553   0.0000000   0.1175974  )
        26           Al  tau(  26) = (   0.3071553   0.0000000  -0.1175974  )
        27           P   tau(  27) = (   0.1175974  -0.3071553   0.0000000  )
        28           P   tau(  28) = (  -0.1175974   0.3071553   0.0000000  )
        29           Al  tau(  29) = (   0.2500000   0.5000000   0.0000000  )
        30           Al  tau(  30) = (   0.0000000   0.2500000   0.5000000  )
        31           Al  tau(  31) = (   0.5000000   0.0000000   0.2500000  )
        32           Al  tau(  32) = (   0.7500000   0.5000000   0.0000000  )
        33           P   tau(  33) = (   0.0000000   0.7500000   0.5000000  )
        34           P   tau(  34) = (   0.5000000   0.0000000   0.7500000  )
        35           Al  tau(  35) = (   0.5000000   0.8071553   0.6175974  )
        36           P   tau(  36) = (   0.5000000  -0.8071553  -0.6175974  )
        37           Al  tau(  37) = (   0.5000000  -0.8071553   0.6175974  )
        38           P   tau(  38) = (   0.5000000   0.8071553  -0.6175974  )
        39           Al  tau(  39) = (   0.6175974   0.5000000   0.8071553  )
        40           Al  tau(  40) = (  -0.6175974   0.5000000  -0.8071553  )
        41           Al  tau(  41) = (   0.6175974   0.5000000  -0.8071553  )
        42           Al  tau(  42) = (  -0.6175974   0.5000000   0.8071553  )
        43           Al  tau(  43) = (   0.8071553   0.6175974   0.5000000  )
        44           Al  tau(  44) = (  -0.8071553  -0.6175974   0.5000000  )
        45           Al  tau(  45) = (  -0.8071553   0.6175974   0.5000000  )
        46           Al  tau(  46) = (   0.8071553  -0.6175974   0.5000000  )
        47           P   tau(  47) = (   0.6838074   0.6838074   0.6838074  )
        48           Al  tau(  48) = (  -0.6838074  -0.6838074  -0.6838074  )
        49           Al  tau(  49) = (   0.6838074  -0.6838074  -0.6838074  )
        50           P   tau(  50) = (  -0.6838074   0.6838074  -0.6838074  )
        51           Al  tau(  51) = (  -0.6838074  -0.6838074   0.6838074  )
        52           P   tau(  52) = (  -0.6838074   0.6838074   0.6838074  )
        53           P   tau(  53) = (   0.6838074  -0.6838074   0.6838074  )
        54           Al  tau(  54) = (   0.6838074   0.6838074  -0.6838074  )

     number of k points=    36  Marzari-Vanderbilt smearing, width (Ry)=  0.0050
                       cart. coord. in units 2pi/alat
        k(    1) = (   0.0000000   0.0000000   0.0000000), wk =   0.0312500
        k(    2) = (   0.0000000   0.0000000   0.2500000), wk =   0.0625000
        k(    3) = (   0.0000000   0.0000000  -0.5000000), wk =   0.0312500
        k(    4) = (   0.0000000   0.2500000   0.2500000), wk =   0.0625000
        k(    5) = (   0.0000000   0.2500000  -0.5000000), wk =   0.0625000
        k(    6) = (   0.0000000  -0.5000000  -0.5000000), wk =   0.0312500
        k(    7) = (   0.2500000   0.2500000   0.2500000), wk =   0.0625000
        k(    8) = (   0.2500000   0.2500000  -0.5000000), wk =   0.0625000
        k(    9) = (   0.2500000  -0.5000000  -0.5000000), wk =   0.0625000
        k(   10) = (  -0.5000000  -0.5000000  -0.5000000), wk =   0.0312500
        k(   11) = (   0.2500000   0.0000000   0.0000000), wk =   0.0625000
        k(   12) = (   0.0000000   0.2500000   0.0000000), wk =   0.0625000
        k(   13) = (  -0.5000000   0.0000000   0.0000000), wk =   0.0312500
        k(   14) = (   0.0000000  -0.5000000   0.0000000), wk =   0.0312500
        k(   15) = (   0.0000000  -0.2500000   0.2500000), wk =   0.0625000
        k(   16) = (   0.2500000   0.0000000  -0.2500000), wk =   0.0625000
        k(   17) = (  -0.2500000   0.0000000  -0.2500000), wk =   0.0625000
        k(   18) = (   0.2500000  -0.2500000   0.0000000), wk =   0.0625000
        k(   19) = (  -0.2500000  -0.2500000   0.0000000), wk =   0.0625000
        k(   20) = (   0.2500000   0.0000000   0.5000000), wk =   0.0625000
        k(   21) = (  -0.5000000  -0.2500000   0.0000000), wk =   0.0625000
        k(   22) = (   0.0000000  -0.5000000   0.2500000), wk =   0.0625000
        k(   23) = (   0.2500000  -0.5000000   0.0000000), wk =   0.0625000
        k(   24) = (  -0.5000000   0.0000000   0.2500000), wk =   0.0625000
        k(   25) = (  -0.5000000   0.0000000   0.5000000), wk =   0.0312500
        k(   26) = (  -0.5000000   0.5000000   0.0000000), wk =   0.0312500
        k(   27) = (  -0.2500000  -0.2500000   0.2500000), wk =   0.0625000
        k(   28) = (  -0.2500000   0.2500000  -0.2500000), wk =   0.0625000
        k(   29) = (   0.2500000  -0.2500000  -0.2500000), wk =   0.0625000
        k(   30) = (  -0.2500000   0.2500000   0.5000000), wk =   0.0625000
        k(   31) = (  -0.5000000  -0.2500000   0.2500000), wk =   0.0625000
        k(   32) = (   0.5000000  -0.2500000  -0.2500000), wk =   0.0625000
        k(   33) = (  -0.2500000  -0.5000000   0.2500000), wk =   0.0625000
        k(   34) = (  -0.2500000   0.5000000  -0.2500000), wk =   0.0625000
        k(   35) = (  -0.5000000   0.2500000   0.5000000), wk =   0.0625000
        k(   36) = (  -0.5000000   0.5000000   0.2500000), wk =   0.0625000

     Dense  grid:  1269383 G-vectors     FFT dimensions: ( 135, 135, 135)

     Smooth grid:   676125 G-vectors     FFT dimensions: ( 120, 120, 120)

     Estimated max dynamical RAM per process >     911.52 MB

     Estimated total dynamical RAM >      14.24 GB

     Initial potential from superposition of free atoms

     starting charge  247.88777, renormalised to  248.00000
     Starting wfcs are  248 randomized atomic wfcs
     Checking if some PAW data can be deallocated... 

     total cpu time spent up to now is      799.0 secs

     Self-consistent Calculation

     iteration #  1     ecut=    45.00 Ry     beta= 0.15
     Davidson diagonalization with overlap
     ethr =  1.00E-02,  avg # of iterations =  2.0

     total cpu time spent up to now is     1853.7 secs

     total energy              =   -3121.32377287 Ry
     estimated scf accuracy    <       5.24076486 Ry

     iteration #  2     ecut=    45.00 Ry     beta= 0.15
     Davidson diagonalization with overlap
     ethr =  2.11E-03,  avg # of iterations =  2.0

     total cpu time spent up to now is     2571.2 secs

     total energy              =   -3121.37503911 Ry
     estimated scf accuracy    <       1.76212488 Ry

     iteration #  3     ecut=    45.00 Ry     beta= 0.15
     Davidson diagonalization with overlap
     ethr =  7.11E-04,  avg # of iterations =  2.0

     total cpu time spent up to now is     3331.1 secs

     total energy              =   -3121.45956517 Ry
     estimated scf accuracy    <       0.61803298 Ry

     iteration #  4     ecut=    45.00 Ry     beta= 0.15
     Davidson diagonalization with overlap
     c_bands:  1 eigenvalues not converged
     ethr =  2.49E-04,  avg # of iterations = 11.6

     total cpu time spent up to now is     4447.5 secs

     total energy              =   -3121.60652209 Ry
     estimated scf accuracy    <       0.26311227 Ry

     iteration #  5     ecut=    45.00 Ry     beta= 0.15
     Davidson diagonalization with overlap
     c_bands:  3 eigenvalues not converged
     c_bands:  2 eigenvalues not converged
     c_bands:  2 eigenvalues not converged
     c_bands:  2 eigenvalues not converged
     c_bands:  1 eigenvalues not converged
     c_bands:  1 eigenvalues not converged
     c_bands:  4 eigenvalues not converged
     c_bands:  3 eigenvalues not converged
     c_bands:  1 eigenvalues not converged
     c_bands:  1 eigenvalues not converged
     c_bands:  1 eigenvalues not converged
     c_bands:  1 eigenvalues not converged
     ethr =  1.06E-04,  avg # of iterations = 17.9

     total cpu time spent up to now is     5734.0 secs

     total energy              =   -3121.64703012 Ry
     estimated scf accuracy    <       0.15162900 Ry

     iteration #  6     ecut=    45.00 Ry     beta= 0.15
     Davidson diagonalization with overlap
     c_bands:  4 eigenvalues not converged
     c_bands:  1 eigenvalues not converged
     ethr =  6.11E-05,  avg # of iterations =  6.1

     total cpu time spent up to now is     6603.9 secs

     total energy              =   -3121.65858527 Ry
     estimated scf accuracy    <       0.08142220 Ry

     iteration #  7     ecut=    45.00 Ry     beta= 0.15
     Davidson diagonalization with overlap
     c_bands:  4 eigenvalues not converged
     c_bands:  5 eigenvalues not converged
     c_bands:  2 eigenvalues not converged
     c_bands:  1 eigenvalues not converged
     c_bands:  4 eigenvalues not converged
     c_bands:  4 eigenvalues not converged
     c_bands:  3 eigenvalues not converged
     c_bands:  2 eigenvalues not converged
     c_bands:  1 eigenvalues not converged
     c_bands:  3 eigenvalues not converged
     c_bands:  2 eigenvalues not converged
     c_bands:  3 eigenvalues not converged
     c_bands:  3 eigenvalues not converged
     c_bands:  3 eigenvalues not converged
     c_bands:  4 eigenvalues not converged
     ethr =  3.28E-05,  avg # of iterations = 17.2

     total cpu time spent up to now is     7861.5 secs

     total energy              =   -3121.67031928 Ry
     estimated scf accuracy    <       0.03684073 Ry

     iteration #  8     ecut=    45.00 Ry     beta= 0.15
     Davidson diagonalization with overlap
     c_bands:  4 eigenvalues not converged
     c_bands:  4 eigenvalues not converged
     c_bands:  2 eigenvalues not converged
     c_bands:  3 eigenvalues not converged
     c_bands:  1 eigenvalues not converged
     c_bands:  3 eigenvalues not converged
     c_bands:  2 eigenvalues not converged
     c_bands:  2 eigenvalues not converged
     c_bands:  1 eigenvalues not converged
     c_bands:  3 eigenvalues not converged
     c_bands:  1 eigenvalues not converged
     c_bands:  1 eigenvalues not converged
     c_bands:  3 eigenvalues not converged
     c_bands:  4 eigenvalues not converged
     c_bands:  3 eigenvalues not converged
     c_bands:  2 eigenvalues not converged
     c_bands:  1 eigenvalues not converged
     c_bands:  2 eigenvalues not converged
     c_bands:  3 eigenvalues not converged
     c_bands:  3 eigenvalues not converged
     c_bands:  2 eigenvalues not converged
     ethr =  1.49E-05,  avg # of iterations = 28.2

     total cpu time spent up to now is    10189.3 secs

     total energy              =   -3121.68675286 Ry
     estimated scf accuracy    <       0.03502948 Ry

     iteration #  9     ecut=    45.00 Ry     beta= 0.15
     Davidson diagonalization with overlap
     ethr =  1.41E-05,  avg # of iterations =  2.1

     total cpu time spent up to now is    10886.2 secs

     total energy              =   -3121.67874958 Ry
     estimated scf accuracy    <       0.02241117 Ry

     iteration # 10     ecut=    45.00 Ry     beta= 0.15
     Davidson diagonalization with overlap
     c_bands:  1 eigenvalues not converged
     c_bands:  1 eigenvalues not converged
     c_bands:  2 eigenvalues not converged
     c_bands:  1 eigenvalues not converged
     c_bands:  3 eigenvalues not converged
     c_bands:  3 eigenvalues not converged
     c_bands:  1 eigenvalues not converged
     c_bands:  2 eigenvalues not converged
     c_bands:  1 eigenvalues not converged
     c_bands:  4 eigenvalues not converged
     c_bands:  1 eigenvalues not converged
     c_bands:  1 eigenvalues not converged
     ethr =  9.04E-06,  avg # of iterations = 17.2

     total cpu time spent up to now is    12064.9 secs

     total energy              =   -3121.68410035 Ry
     estimated scf accuracy    <       0.00427965 Ry

     iteration # 11     ecut=    45.00 Ry     beta= 0.15
     Davidson diagonalization with overlap
     c_bands:  3 eigenvalues not converged
     c_bands:  4 eigenvalues not converged
     c_bands:  1 eigenvalues not converged
     c_bands:  5 eigenvalues not converged
     c_bands:  3 eigenvalues not converged
     c_bands:  5 eigenvalues not converged
     c_bands:  5 eigenvalues not converged
     c_bands:  2 eigenvalues not converged
     c_bands:  4 eigenvalues not converged
     c_bands:  3 eigenvalues not converged
     c_bands:  5 eigenvalues not converged
     c_bands:  4 eigenvalues not converged
     c_bands:  1 eigenvalues not converged
     c_bands:  2 eigenvalues not converged
     c_bands:  1 eigenvalues not converged
     c_bands:  3 eigenvalues not converged
     c_bands:  2 eigenvalues not converged
     c_bands:  4 eigenvalues not converged
     c_bands:  5 eigenvalues not converged
     c_bands:  4 eigenvalues not converged
     c_bands:  5 eigenvalues not converged
     c_bands:  3 eigenvalues not converged
     c_bands:  4 eigenvalues not converged
     c_bands:  3 eigenvalues not converged
     c_bands:  5 eigenvalues not converged
     c_bands:  1 eigenvalues not converged
     c_bands:  1 eigenvalues not converged
     c_bands:  1 eigenvalues not converged
     ethr =  1.73E-06,  avg # of iterations = 29.3

     total cpu time spent up to now is    14018.6 secs

     total energy              =   -3121.68551258 Ry
     estimated scf accuracy    <       0.00142705 Ry

     iteration # 12     ecut=    45.00 Ry     beta= 0.15
     Davidson diagonalization with overlap
     c_bands:  1 eigenvalues not converged
     c_bands:  2 eigenvalues not converged
     c_bands:  3 eigenvalues not converged
     c_bands:  5 eigenvalues not converged
     c_bands:  3 eigenvalues not converged
     c_bands:  3 eigenvalues not converged
     c_bands:  2 eigenvalues not converged
     c_bands:  1 eigenvalues not converged
     c_bands:  1 eigenvalues not converged
     c_bands:  1 eigenvalues not converged
     c_bands:  3 eigenvalues not converged
     c_bands:  3 eigenvalues not converged
     ethr =  5.75E-07,  avg # of iterations = 10.0

     total cpu time spent up to now is    14901.1 secs

     total energy              =   -3121.68555675 Ry
     estimated scf accuracy    <       0.00067160 Ry

     iteration # 13     ecut=    45.00 Ry     beta= 0.15
     Davidson diagonalization with overlap
     c_bands:  2 eigenvalues not converged
     c_bands:  1 eigenvalues not converged
     c_bands:  3 eigenvalues not converged
     c_bands:  1 eigenvalues not converged
     c_bands:  5 eigenvalues not converged
     c_bands:  1 eigenvalues not converged
     c_bands:  2 eigenvalues not converged
     c_bands:  1 eigenvalues not converged
     c_bands:  1 eigenvalues not converged
     c_bands:  1 eigenvalues not converged
     c_bands:  2 eigenvalues not converged
     c_bands:  1 eigenvalues not converged
     ethr =  2.71E-07,  avg # of iterations = 12.8

     total cpu time spent up to now is    15901.8 secs

     total energy              =   -3121.68577263 Ry
     estimated scf accuracy    <       0.00025912 Ry

     iteration # 14     ecut=    45.00 Ry     beta= 0.15
     Davidson diagonalization with overlap
     c_bands:  1 eigenvalues not converged
     c_bands:  1 eigenvalues not converged
     c_bands:  1 eigenvalues not converged
     c_bands:  2 eigenvalues not converged
     c_bands:  3 eigenvalues not converged
     c_bands:  2 eigenvalues not converged
     c_bands:  5 eigenvalues not converged
     ethr =  1.04E-07,  avg # of iterations = 11.6

     total cpu time spent up to now is    16969.5 secs

     total energy              =   -3121.68582737 Ry
     estimated scf accuracy    <       0.00019856 Ry

     iteration # 15     ecut=    45.00 Ry     beta= 0.15
     Davidson diagonalization with overlap
     c_bands:  3 eigenvalues not converged
     ethr =  8.01E-08,  avg # of iterations =  3.2

     total cpu time spent up to now is    17712.3 secs

     total energy              =   -3121.68585216 Ry
     estimated scf accuracy    <       0.00006250 Ry

     iteration # 16     ecut=    45.00 Ry     beta= 0.15
     Davidson diagonalization with overlap
     c_bands:  3 eigenvalues not converged
     c_bands:  5 eigenvalues not converged
     ethr =  2.52E-08,  avg # of iterations = 14.7

     total cpu time spent up to now is    19079.5 secs

     total energy              =   -3121.68588070 Ry
     estimated scf accuracy    <       0.00006732 Ry

     iteration # 17     ecut=    45.00 Ry     beta= 0.15
     Davidson diagonalization with overlap
     ethr =  2.52E-08,  avg # of iterations =  2.5

     total cpu time spent up to now is    19789.4 secs

     End of self-consistent calculation

          k = 0.0000 0.0000 0.0000 ( 84727 PWs)   bands (ev):

   -43.3701 -43.2732 -43.2078 -43.2052 -43.1356 -43.0976 -42.7905 -42.6087
   -24.2904 -24.2777 -24.2542 -24.1896 -24.1819 -24.1594 -24.1326 -24.1310
   -24.1183 -24.1149 -24.0922 -24.0848 -24.0579 -24.0501 -24.0245 -24.0178
   -24.0160 -23.9712 -23.7101 -23.7014 -23.6903 -23.5282 -23.5209 -23.5104
    -8.0025  -7.9700  -7.6472  -7.5928  -7.5674  -7.5644  -7.5273  -7.5097
    -7.5041  -7.4808  -7.4736  -7.4473  -7.4304  -7.3238  -7.2773  -4.2543
    -4.1004  -4.0026  -3.8616  -3.7901  -3.7479  -3.6085  -3.3984  -3.3286
    -3.2500  -3.1637  -3.0528  -2.9987  -2.9385  -2.7608  -2.6213  -2.5695
    -2.4885  -2.3639  -2.3357  -2.1930  -2.0892  -2.0378  -1.9370  -1.8082
    -1.7871  -1.6346  -1.5985  -1.5530  -1.4425  -1.3320  -0.6371  -0.5648
    -0.4867  -0.4466  -0.4201  -0.4001  -0.3474  -0.3256  -0.2769  -0.2494
    -0.2324  -0.2086  -0.1719  -0.1286  -0.1271  -0.1092  -0.0579  -0.0383
    -0.0095   0.0127   0.0489   0.0606   0.0891   0.1355   0.2209   0.2545
     0.3054   0.3218   0.3357   0.3859   0.4385   0.5014   0.5587   0.5663
     0.6517   0.6642   0.6827   0.8068   0.8367   0.9492   1.0072   1.0974
     1.1174   1.1413   1.1727   1.2508   1.2717   1.3492   1.3979   1.4063
     1.4581   1.4851   1.5254   1.5768   1.6151   1.6566   1.7172   1.7426
     1.7672   1.7812   1.8508   1.8993   1.9324   1.9441   1.9990   2.0387
     2.0967   2.0994   2.1243   2.1667   2.1726

          k = 0.0000 0.0000 0.2500 ( 84554 PWs)   bands (ev):

   -43.3701 -43.2732 -43.2078 -43.2052 -43.1356 -43.0975 -42.7905 -42.6087
   -24.2903 -24.2776 -24.2542 -24.1895 -24.1819 -24.1594 -24.1326 -24.1310
   -24.1182 -24.1148 -24.0922 -24.0848 -24.0578 -24.0501 -24.0245 -24.0178
   -24.0160 -23.9712 -23.7101 -23.7014 -23.6903 -23.5282 -23.5209 -23.5104
    -8.0015  -7.9699  -7.6467  -7.6036  -7.5712  -7.5508  -7.5305  -7.5143
    -7.4999  -7.4821  -7.4673  -7.4468  -7.4335  -7.3237  -7.2769  -4.2458
    -4.1287  -3.9897  -3.8638  -3.7850  -3.7344  -3.5846  -3.4280  -3.3039
    -3.2535  -3.1819  -3.0771  -2.9947  -2.9416  -2.7831  -2.6246  -2.5688
    -2.4413  -2.3582  -2.3033  -2.1981  -2.0990  -2.0411  -1.9684  -1.8223
    -1.7736  -1.7086  -1.5902  -1.5412  -1.4166  -1.2756  -0.6599  -0.5923
    -0.5104  -0.4640  -0.4349  -0.3862  -0.3655  -0.3304  -0.2903  -0.2479
    -0.2333  -0.2030  -0.1667  -0.1630  -0.1143  -0.0947  -0.0594  -0.0336
     0.0041   0.0264   0.0869   0.1358   0.1554   0.1826   0.2371   0.2951
     0.3068   0.3375   0.3552   0.3949   0.4281   0.4920   0.5358   0.5739
     0.6367   0.6611   0.7338   0.7603   0.8099   0.8889   0.9182   1.0225
     1.0506   1.0974   1.1672   1.2298   1.2491   1.3111   1.3580   1.3856
     1.4029   1.5042   1.5420   1.5773   1.6178   1.6782   1.7010   1.7444
     1.8145   1.8379   1.9109   1.9317   1.9712   2.0027   2.0252   2.0476
     2.0769   2.1084   2.1453   2.1641   2.1947

          k = 0.0000 0.0000-0.5000 ( 84526 PWs)   bands (ev):

   -43.3701 -43.2732 -43.2078 -43.2052 -43.1356 -43.0975 -42.7905 -42.6087
   -24.2903 -24.2776 -24.2542 -24.1895 -24.1819 -24.1594 -24.1326 -24.1310
   -24.1182 -24.1148 -24.0922 -24.0848 -24.0578 -24.0501 -24.0245 -24.0178
   -24.0160 -23.9712 -23.7101 -23.7014 -23.6903 -23.5282 -23.5209 -23.5104
    -8.0006  -7.9698  -7.6457  -7.6129  -7.5672  -7.5495  -7.5312  -7.5170
    -7.4958  -7.4839  -7.4619  -7.4450  -7.4380  -7.3236  -7.2764  -4.2350
    -4.1510  -3.9973  -3.8328  -3.7935  -3.7270  -3.5589  -3.4553  -3.2881
    -3.2545  -3.1917  -3.1055  -2.9925  -2.9341  -2.8177  -2.6266  -2.5629
    -2.3946  -2.3580  -2.2527  -2.2054  -2.1235  -2.0442  -2.0046  -1.8404
    -1.7679  -1.7200  -1.6047  -1.5484  -1.3899  -1.2214  -0.6912  -0.6323
    -0.5324  -0.4759  -0.4233  -0.4006  -0.3686  -0.3336  -0.3043  -0.2703
    -0.2378  -0.1853  -0.1705  -0.1478  -0.1003  -0.0741  -0.0634  -0.0208
     0.0024   0.1058   0.1234   0.1839   0.1936   0.2116   0.2665   0.2914
     0.3148   0.3436   0.3759   0.4177   0.4782   0.4896   0.5077   0.5349
     0.6235   0.6512   0.7413   0.7514   0.8107   0.8449   0.8702   0.8987
     0.9902   1.0824   1.1352   1.1708   1.2057   1.2416   1.3064   1.3750
     1.4102   1.4485   1.5414   1.5716   1.6820   1.7228   1.7592   1.8234
     1.8654   1.8834   1.9208   1.9819   2.0108   2.0410   2.0539   2.0727
     2.1022   2.1093   2.1397   2.1478   2.1681

          k = 0.0000 0.2500 0.2500 ( 84577 PWs)   bands (ev):

   -43.3701 -43.2732 -43.2078 -43.2052 -43.1356 -43.0975 -42.7905 -42.6087
   -24.2903 -24.2776 -24.2542 -24.1895 -24.1819 -24.1594 -24.1326 -24.1310
   -24.1182 -24.1149 -24.0922 -24.0848 -24.0578 -24.0501 -24.0245 -24.0178
   -24.0160 -23.9712 -23.7101 -23.7014 -23.6903 -23.5282 -23.5209 -23.5104
    -8.0008  -7.9701  -7.6400  -7.6069  -7.5781  -7.5508  -7.5316  -7.5114
    -7.5024  -7.4856  -7.4666  -7.4453  -7.4297  -7.3228  -7.2766  -4.2409
    -4.1371  -4.0038  -3.8622  -3.7793  -3.6634  -3.6083  -3.4357  -3.3296
    -3.2279  -3.1698  -3.1274  -3.0212  -2.9632  -2.7735  -2.6159  -2.5223
    -2.4771  -2.3536  -2.2891  -2.1869  -2.1157  -2.0484  -1.9198  -1.8129
    -1.7886  -1.7106  -1.6157  -1.5259  -1.4230  -1.2548  -0.7202  -0.5951
    -0.5258  -0.5060  -0.4536  -0.3863  -0.3361  -0.3098  -0.2877  -0.2403
    -0.2153  -0.1908  -0.1694  -0.1425  -0.1093  -0.0678  -0.0458  -0.0197
     0.0091   0.0464   0.0660   0.1151   0.1494   0.1862   0.2208   0.2907
     0.3231   0.3454   0.3897   0.4355   0.4638   0.5049   0.5443   0.5686
     0.6502   0.6687   0.6859   0.7495   0.8147   0.8864   0.9074   0.9889
     1.0160   1.0455   1.1482   1.1823   1.2335   1.2587   1.3054   1.3763
     1.4227   1.4653   1.5082   1.5559   1.6262   1.6605   1.7365   1.7735
     1.8513   1.8945   1.9099   1.9571   1.9922   2.0187   2.0540   2.0787
     2.0905   2.1376   2.1449   2.1642   2.1911

          k = 0.0000 0.2500-0.5000 ( 84474 PWs)   bands (ev):

   -43.3701 -43.2732 -43.2078 -43.2052 -43.1356 -43.0975 -42.7905 -42.6087
   -24.2903 -24.2776 -24.2542 -24.1895 -24.1819 -24.1594 -24.1325 -24.1310
   -24.1182 -24.1148 -24.0922 -24.0848 -24.0578 -24.0501 -24.0245 -24.0178
   -24.0160 -23.9712 -23.7101 -23.7014 -23.6903 -23.5282 -23.5209 -23.5104
    -8.0001  -7.9698  -7.6394  -7.6139  -7.5751  -7.5536  -7.5314  -7.5147
    -7.4980  -7.4831  -7.4620  -7.4433  -7.4357  -7.3224  -7.2762  -4.2305
    -4.1556  -4.0074  -3.8661  -3.7553  -3.6757  -3.5534  -3.4739  -3.3128
    -3.2420  -3.1995  -3.1215  -3.0168  -2.9627  -2.7950  -2.6302  -2.5251
    -2.4190  -2.3547  -2.2722  -2.2009  -2.0999  -2.0506  -1.9634  -1.8413
    -1.7772  -1.7407  -1.5881  -1.5504  -1.3991  -1.2069  -0.7293  -0.6322
    -0.5448  -0.5209  -0.4484  -0.3525  -0.3256  -0.2952  -0.2830  -0.2565
    -0.2184  -0.1769  -0.1482  -0.1364  -0.1042  -0.0902  -0.0433  -0.0119
     0.0161   0.0733   0.1085   0.1594   0.1906   0.2089   0.2324   0.2842
     0.3035   0.3638   0.3807   0.4281   0.4394   0.4898   0.4997   0.5731
     0.6092   0.6706   0.6938   0.7498   0.7852   0.8135   0.8731   0.9271
     0.9724   1.0663   1.1048   1.1876   1.1952   1.2700   1.2878   1.3728
     1.3979   1.5017   1.5224   1.5555   1.6642   1.7170   1.7869   1.7975
     1.8513   1.8830   1.9300   1.9816   2.0085   2.0433   2.0706   2.0970
     2.1177   2.1281   2.1501   2.1742   2.2028

          k = 0.0000-0.5000-0.5000 ( 84380 PWs)   bands (ev):

   -43.3701 -43.2732 -43.2078 -43.2052 -43.1356 -43.0975 -42.7905 -42.6087
   -24.2903 -24.2776 -24.2542 -24.1895 -24.1819 -24.1594 -24.1325 -24.1310
   -24.1182 -24.1148 -24.0922 -24.0848 -24.0578 -24.0501 -24.0245 -24.0178
   -24.0160 -23.9712 -23.7101 -23.7014 -23.6903 -23.5282 -23.5209 -23.5104
    -7.9995  -7.9698  -7.6306  -7.6151  -7.5865  -7.5560  -7.5318  -7.5119
    -7.4998  -7.4826  -7.4620  -7.4445  -7.4312  -7.3213  -7.2760  -4.2260
    -4.1597  -4.0178  -3.8792  -3.7345  -3.6047  -3.5607  -3.5006  -3.3301
    -3.2515  -3.1831  -3.1307  -3.0750  -2.9642  -2.7857  -2.6260  -2.4897
    -2.4369  -2.3575  -2.2828  -2.2011  -2.0892  -2.0550  -1.9076  -1.8239
    -1.8179  -1.7545  -1.5821  -1.5458  -1.4088  -1.1917  -0.7481  -0.6447
    -0.5746  -0.5356  -0.4607  -0.3714  -0.3067  -0.2707  -0.2490  -0.2259
    -0.1987  -0.1566  -0.1088  -0.1005  -0.0966  -0.0542  -0.0380   0.0021
     0.0364   0.0439   0.0805   0.1089   0.1783   0.1942   0.2179   0.2726
     0.3088   0.3301   0.4024   0.4174   0.4421   0.4890   0.5192   0.5352
     0.6026   0.6512   0.7098   0.7228   0.7605   0.7848   0.8370   0.9406
     0.9759   1.0398   1.1424   1.1583   1.2234   1.2279   1.3430   1.4046
     1.4102   1.4828   1.5877   1.6034   1.6255   1.6772   1.6939   1.7827
     1.8345   1.9089   1.9131   1.9537   2.0358   2.0553   2.0760   2.0938
     2.1140   2.1439   2.1552   2.1840   2.2434

          k = 0.2500 0.2500 0.2500 ( 84529 PWs)   bands (ev):

   -43.3701 -43.2732 -43.2078 -43.2052 -43.1356 -43.0975 -42.7905 -42.6087
   -24.2903 -24.2776 -24.2542 -24.1895 -24.1819 -24.1594 -24.1326 -24.1310
   -24.1182 -24.1148 -24.0922 -24.0848 -24.0578 -24.0501 -24.0245 -24.0178
   -24.0160 -23.9712 -23.7101 -23.7014 -23.6903 -23.5282 -23.5209 -23.5104
    -7.9998  -7.9701  -7.6402  -7.6010  -7.5884  -7.5502  -7.5332  -7.5166
    -7.5016  -7.4886  -7.4619  -7.4413  -7.4244  -7.3224  -7.2790  -4.2149
    -4.1768  -4.0123  -3.8164  -3.7960  -3.6257  -3.6067  -3.4735  -3.3199
    -3.2321  -3.2076  -3.1119  -3.0160  -2.9476  -2.7958  -2.6540  -2.5532
    -2.4279  -2.3768  -2.2757  -2.1538  -2.0944  -2.0327  -1.9233  -1.8656
    -1.7853  -1.6775  -1.6097  -1.5265  -1.3930  -1.3265  -0.6986  -0.6046
    -0.5469  -0.4859  -0.4413  -0.3658  -0.3378  -0.3108  -0.2881  -0.2478
    -0.1869  -0.1788  -0.1303  -0.1181  -0.0982  -0.0760  -0.0395  -0.0061
     0.0135   0.0445   0.0957   0.1135   0.1408   0.1876   0.2146   0.2732
     0.3089   0.3423   0.3537   0.4125   0.4332   0.4771   0.5449   0.5732
     0.6425   0.6822   0.7057   0.7220   0.7811   0.8421   0.9133   0.9569
     1.0017   1.0574   1.1047   1.1433   1.2165   1.2380   1.3375   1.3769
     1.4114   1.4983   1.5267   1.5709   1.6256   1.6789   1.7674   1.8253
     1.8630   1.8884   1.9398   1.9728   2.0022   2.0491   2.0561   2.0768
     2.0909   2.1226   2.1627   2.1717   2.1975

          k = 0.2500 0.2500-0.5000 ( 84496 PWs)   bands (ev):

   -43.3701 -43.2732 -43.2078 -43.2052 -43.1356 -43.0975 -42.7905 -42.6087
   -24.2903 -24.2776 -24.2542 -24.1895 -24.1819 -24.1594 -24.1325 -24.1310
   -24.1182 -24.1148 -24.0922 -24.0848 -24.0578 -24.0501 -24.0245 -24.0178
   -24.0160 -23.9712 -23.7101 -23.7014 -23.6903 -23.5282 -23.5209 -23.5104
    -7.9992  -7.9697  -7.6373  -7.6132  -7.5785  -7.5564  -7.5337  -7.5197
    -7.5025  -7.4805  -7.4591  -7.4405  -7.4274  -7.3223  -7.2784  -4.2292
    -4.1538  -4.0221  -3.8551  -3.7599  -3.6542  -3.5275  -3.4838  -3.3213
    -3.2553  -3.1985  -3.1346  -3.0508  -2.9340  -2.8038  -2.6217  -2.5632
    -2.4238  -2.3547  -2.2524  -2.1661  -2.1021  -2.0449  -1.9418  -1.8850
    -1.7788  -1.7003  -1.5928  -1.5539  -1.3820  -1.2829  -0.7101  -0.6219
    -0.5478  -0.4961  -0.4164  -0.3749  -0.3105  -0.3041  -0.2803  -0.2493
    -0.1951  -0.1464  -0.1447  -0.1167  -0.0889  -0.0789  -0.0197  -0.0033
     0.0141   0.0978   0.1085   0.1523   0.1609   0.2064   0.2218   0.2595
     0.2958   0.3278   0.3631   0.3927   0.4367   0.4549   0.5115   0.5407
     0.5944   0.6384   0.7049   0.7237   0.7669   0.8390   0.8840   0.9477
     0.9817   1.0492   1.0727   1.1260   1.2349   1.2907   1.3275   1.3804
     1.3992   1.4819   1.5082   1.5653   1.6485   1.7531   1.7864   1.8022
     1.8438   1.8793   1.9501   2.0052   2.0336   2.0555   2.0830   2.1068
     2.1187   2.1326   2.1500   2.1679   2.1930

          k = 0.2500-0.5000-0.5000 ( 84608 PWs)   bands (ev):

   -43.3701 -43.2732 -43.2078 -43.2052 -43.1356 -43.0976 -42.7905 -42.6087
   -24.2904 -24.2777 -24.2542 -24.1896 -24.1819 -24.1594 -24.1326 -24.1310
   -24.1182 -24.1149 -24.0922 -24.0848 -24.0579 -24.0501 -24.0245 -24.0178
   -24.0160 -23.9712 -23.7101 -23.7014 -23.6903 -23.5282 -23.5209 -23.5104
    -7.9987  -7.9697  -7.6283  -7.6127  -7.5873  -7.5618  -7.5379  -7.5222
    -7.4984  -7.4793  -7.4523  -7.4453  -7.4253  -7.3214  -7.2781  -4.2250
    -4.1587  -4.0302  -3.8706  -3.7233  -3.6112  -3.5520  -3.4566  -3.3364
    -3.2841  -3.2130  -3.1604  -3.0396  -2.9659  -2.7743  -2.6584  -2.5376
    -2.4212  -2.3399  -2.2455  -2.1700  -2.0887  -2.0525  -1.9402  -1.8720
    -1.7716  -1.7207  -1.5949  -1.5524  -1.3976  -1.2571  -0.7493  -0.6288
    -0.5599  -0.5218  -0.4014  -0.3693  -0.2970  -0.2533  -0.2345  -0.1921
    -0.1789  -0.1534  -0.1141  -0.0810  -0.0689  -0.0550  -0.0359   0.0088
     0.0212   0.0491   0.0743   0.1264   0.1606   0.1753   0.2321   0.2569
     0.2742   0.3172   0.3509   0.3985   0.4208   0.4524   0.4868   0.5528
     0.5666   0.6068   0.6521   0.7223   0.7613   0.8214   0.8566   0.8930
     0.9662   1.0632   1.0887   1.1621   1.1924   1.2850   1.3082   1.3881
     1.4242   1.5097   1.5996   1.6486   1.6862   1.7059   1.7482   1.8103
     1.8734   1.8937   1.9415   1.9943   2.0317   2.0616   2.0714   2.0868
     2.1167   2.1325   2.1436   2.1874   2.2089

          k =-0.5000-0.5000-0.5000 ( 84680 PWs)   bands (ev):

   -43.3701 -43.2732 -43.2078 -43.2052 -43.1356 -43.0976 -42.7905 -42.6087
   -24.2904 -24.2777 -24.2542 -24.1896 -24.1819 -24.1594 -24.1326 -24.1310
   -24.1183 -24.1149 -24.0922 -24.0848 -24.0579 -24.0501 -24.0245 -24.0178
   -24.0160 -23.9712 -23.7101 -23.7014 -23.6903 -23.5282 -23.5209 -23.5104
    -7.9980  -7.9695  -7.6279  -7.6059  -7.5894  -7.5663  -7.5488  -7.5263
    -7.4979  -7.4766  -7.4487  -7.4411  -7.4203  -7.3215  -7.2803  -4.2243
    -4.1567  -4.0425  -3.8625  -3.7015  -3.6480  -3.4959  -3.3940  -3.3810
    -3.3166  -3.2676  -3.1645  -2.9949  -2.9790  -2.7612  -2.6982  -2.5701
    -2.4061  -2.3317  -2.2250  -2.1442  -2.0792  -2.0226  -1.9936  -1.8879
    -1.7205  -1.7074  -1.6097  -1.5621  -1.3864  -1.3307  -0.7562  -0.6205
    -0.5462  -0.5081  -0.3647  -0.2824  -0.2802  -0.2620  -0.2270  -0.1873
    -0.1609  -0.1418  -0.1165  -0.1069  -0.0733  -0.0373  -0.0043   0.0333
     0.0474   0.0770   0.1055   0.1252   0.1535   0.1757   0.1951   0.2452
     0.2677   0.2877   0.3024   0.3193   0.3922   0.4230   0.4725   0.5141
     0.5453   0.5900   0.6064   0.6976   0.7695   0.8028   0.8586   0.8799
     0.9608   0.9749   1.1102   1.1643   1.2222   1.2674   1.3765   1.4233
     1.4678   1.5469   1.5900   1.6362   1.7683   1.7752   1.7954   1.8415
     1.8673   1.8842   1.9533   1.9989   2.0166   2.0401   2.0535   2.0885
     2.0992   2.1225   2.1401   2.1977   2.2127

          k = 0.2500 0.0000 0.0000 ( 84554 PWs)   bands (ev):

   -43.3701 -43.2732 -43.2078 -43.2052 -43.1356 -43.0975 -42.7905 -42.6087
   -24.2903 -24.2776 -24.2542 -24.1895 -24.1819 -24.1594 -24.1326 -24.1310
   -24.1182 -24.1148 -24.0922 -24.0848 -24.0578 -24.0501 -24.0245 -24.0178
   -24.0160 -23.9712 -23.7101 -23.7014 -23.6903 -23.5282 -23.5209 -23.5104
    -8.0012  -7.9703  -7.6437  -7.6075  -7.5649  -7.5575  -7.5294  -7.5113
    -7.5009  -7.4950  -7.4615  -7.4494  -7.4232  -7.3236  -7.2796  -4.2389
    -4.1282  -4.0205  -3.8417  -3.7858  -3.7150  -3.5770  -3.4560  -3.3172
    -3.2448  -3.1720  -3.0599  -2.9987  -2.9424  -2.7917  -2.6340  -2.5705
    -2.4737  -2.4163  -2.2915  -2.1550  -2.0776  -2.0198  -1.9621  -1.8359
    -1.7553  -1.6543  -1.5904  -1.5269  -1.4214  -1.3625  -0.6442  -0.5861
    -0.4924  -0.4636  -0.4433  -0.4301  -0.3795  -0.3010  -0.2586  -0.2290
    -0.2180  -0.1990  -0.1835  -0.1384  -0.1097  -0.0785  -0.0517  -0.0190
     0.0134   0.0580   0.0770   0.1065   0.1392   0.1599   0.2114   0.2409
     0.2728   0.3021   0.3508   0.3636   0.4219   0.4885   0.5345   0.5917
     0.6535   0.6732   0.7200   0.7616   0.7682   0.8888   0.9580   1.0016
     1.0890   1.1216   1.1743   1.1986   1.2612   1.3063   1.3315   1.3803
     1.4579   1.5048   1.5401   1.6125   1.6495   1.6805   1.7516   1.7532
     1.8073   1.8254   1.8837   1.9253   1.9464   2.0017   2.0313   2.0716
     2.1183   2.1367   2.1499   2.1741   2.1897

          k = 0.0000 0.2500 0.0000 ( 84554 PWs)   bands (ev):

   -43.3701 -43.2732 -43.2078 -43.2052 -43.1356 -43.0975 -42.7905 -42.6087
   -24.2903 -24.2776 -24.2542 -24.1895 -24.1819 -24.1594 -24.1326 -24.1310
   -24.1182 -24.1148 -24.0922 -24.0848 -24.0578 -24.0501 -24.0245 -24.0178
   -24.0160 -23.9712 -23.7101 -23.7014 -23.6903 -23.5282 -23.5209 -23.5104
    -8.0016  -7.9704  -7.6424  -7.5940  -7.5764  -7.5599  -7.5292  -7.5149
    -7.5017  -7.4848  -7.4715  -7.4436  -7.4286  -7.3229  -7.2770  -4.2508
    -4.1100  -4.0087  -3.8571  -3.7861  -3.7274  -3.5782  -3.4106  -3.3504
    -3.2434  -3.1806  -3.0900  -2.9949  -2.9290  -2.7943  -2.6049  -2.5569
    -2.4938  -2.3536  -2.3226  -2.1851  -2.0906  -2.0363  -1.9147  -1.8117
    -1.7843  -1.6669  -1.6068  -1.5176  -1.4524  -1.3059  -0.7065  -0.5890
    -0.5223  -0.4785  -0.4422  -0.3747  -0.3518  -0.3204  -0.2956  -0.2583
    -0.2245  -0.1892  -0.1754  -0.1512  -0.1274  -0.0967  -0.0601  -0.0148
     0.0123   0.0423   0.0792   0.1071   0.1358   0.1828   0.2401   0.2844
     0.3138   0.3578   0.3683   0.4173   0.4661   0.4822   0.5444   0.5784
     0.6602   0.6904   0.7070   0.7543   0.7929   0.8838   0.9171   0.9986
     1.0544   1.1068   1.1614   1.1902   1.2468   1.3129   1.3416   1.4053
     1.4449   1.4867   1.5297   1.5520   1.6044   1.6506   1.6923   1.7572
     1.8458   1.8626   1.8982   1.9160   1.9634   1.9806   2.0260   2.0741
     2.1060   2.1248   2.1540   2.1785   2.2046

          k =-0.5000 0.0000 0.0000 ( 84526 PWs)   bands (ev):

   -43.3701 -43.2732 -43.2078 -43.2052 -43.1356 -43.0975 -42.7905 -42.6087
   -24.2903 -24.2776 -24.2542 -24.1895 -24.1819 -24.1594 -24.1326 -24.1310
   -24.1182 -24.1148 -24.0922 -24.0848 -24.0578 -24.0501 -24.0245 -24.0178
   -24.0160 -23.9712 -23.7101 -23.7014 -23.6903 -23.5282 -23.5209 -23.5104
    -8.0000  -7.9705  -7.6360  -7.6236  -7.5590  -7.5556  -7.5263  -7.5248
    -7.5001  -7.4921  -7.4585  -7.4517  -7.4153  -7.3234  -7.2820  -4.2092
    -4.1704  -4.0323  -3.8158  -3.8011  -3.6312  -3.6043  -3.4754  -3.3192
    -3.2407  -3.2090  -3.0328  -3.0081  -2.9420  -2.8279  -2.6506  -2.5662
    -2.4545  -2.4510  -2.2597  -2.1439  -2.0819  -2.0139  -1.9215  -1.8687
    -1.7461  -1.6514  -1.5681  -1.5130  -1.4482  -1.3676  -0.6576  -0.6116
    -0.5129  -0.4973  -0.4602  -0.4342  -0.3909  -0.2753  -0.2562  -0.2328
    -0.2087  -0.1938  -0.1470  -0.1101  -0.0702  -0.0446  -0.0123   0.0079
     0.0409   0.0873   0.1103   0.1206   0.1326   0.1545   0.2304   0.2414
     0.2433   0.2893   0.2971   0.3728   0.4030   0.4476   0.5446   0.5566
     0.6036   0.6906   0.7184   0.7694   0.8136   0.8412   0.9316   0.9853
     1.0495   1.0756   1.1436   1.1904   1.1978   1.2304   1.2778   1.2973
     1.4129   1.4755   1.6405   1.6527   1.6963   1.7282   1.7776   1.8387
     1.8724   1.8946   1.9075   1.9512   1.9626   2.0251   2.0439   2.0844
     2.1237   2.1427   2.1560   2.1603   2.2006

          k = 0.0000-0.5000 0.0000 ( 84526 PWs)   bands (ev):

   -43.3701 -43.2732 -43.2078 -43.2052 -43.1356 -43.0975 -42.7905 -42.6087
   -24.2903 -24.2776 -24.2542 -24.1895 -24.1819 -24.1594 -24.1326 -24.1310
   -24.1182 -24.1148 -24.0922 -24.0848 -24.0578 -24.0501 -24.0245 -24.0178
   -24.0160 -23.9712 -23.7101 -23.7014 -23.6903 -23.5282 -23.5209 -23.5104
    -8.0006  -7.9708  -7.6366  -7.5919  -7.5878  -7.5577  -7.5317  -7.5172
    -7.5007  -7.4865  -7.4711  -7.4420  -7.4254  -7.3220  -7.2768  -4.2471
    -4.1193  -4.0126  -3.8558  -3.7850  -3.6998  -3.5381  -3.4329  -3.3770
    -3.2327  -3.1901  -3.1335  -2.9925  -2.9079  -2.8364  -2.6030  -2.5406
    -2.4870  -2.3517  -2.3062  -2.1835  -2.0945  -2.0313  -1.8781  -1.8093
    -1.7874  -1.7056  -1.6035  -1.5012  -1.4597  -1.2744  -0.7538  -0.6490
    -0.5590  -0.4912  -0.4623  -0.3900  -0.3640  -0.3047  -0.2862  -0.2518
    -0.2289  -0.1860  -0.1808  -0.1582  -0.1000  -0.0890  -0.0549   0.0075
     0.0431   0.1113   0.1227   0.1418   0.1741   0.2274   0.2579   0.3047
     0.3257   0.3659   0.4088   0.4217   0.4424   0.5259   0.5482   0.5719
     0.6291   0.6521   0.7018   0.7304   0.7789   0.8701   0.8827   0.9107
     1.0216   1.0472   1.0975   1.1785   1.2366   1.2521   1.3027   1.3427
     1.4016   1.4619   1.5363   1.5534   1.5900   1.6869   1.7588   1.8207
     1.8879   1.8970   1.9235   1.9512   1.9811   2.0305   2.0421   2.0774
     2.1035   2.1368   2.1664   2.1751   2.2192

          k = 0.0000-0.2500 0.2500 ( 84577 PWs)   bands (ev):

   -43.3701 -43.2732 -43.2078 -43.2052 -43.1356 -43.0975 -42.7905 -42.6087
   -24.2903 -24.2776 -24.2542 -24.1896 -24.1819 -24.1594 -24.1326 -24.1310
   -24.1182 -24.1149 -24.0922 -24.0848 -24.0578 -24.0501 -24.0245 -24.0178
   -24.0160 -23.9712 -23.7101 -23.7014 -23.6903 -23.5282 -23.5209 -23.5104
    -8.0008  -7.9701  -7.6425  -7.6005  -7.5777  -7.5574  -7.5277  -7.5186
    -7.5001  -7.4819  -7.4660  -7.4422  -7.4339  -7.3226  -7.2767  -4.2433
    -4.1294  -4.0067  -3.8619  -3.7692  -3.7248  -3.5395  -3.4384  -3.3237
    -3.2757  -3.2010  -3.0926  -2.9995  -2.8969  -2.8351  -2.6236  -2.5520
    -2.4384  -2.3400  -2.3304  -2.1912  -2.0793  -2.0156  -1.9705  -1.8335
    -1.7741  -1.7281  -1.5810  -1.5237  -1.4300  -1.2549  -0.7058  -0.6115
    -0.5335  -0.4886  -0.4622  -0.3709  -0.3424  -0.3119  -0.2884  -0.2793
    -0.2088  -0.1896  -0.1455  -0.1293  -0.0950  -0.0868  -0.0684  -0.0151
     0.0000   0.0540   0.1059   0.1349   0.1588   0.2217   0.2391   0.2719
     0.3210   0.3535   0.3808   0.4077   0.4409   0.4822   0.5409   0.5609
     0.6448   0.6786   0.6907   0.7192   0.7948   0.8343   0.8759   0.9368
     1.0322   1.0909   1.1320   1.2045   1.2566   1.2950   1.3372   1.3873
     1.4516   1.4721   1.4998   1.5622   1.6043   1.6866   1.7371   1.7907
     1.8274   1.8991   1.9069   1.9373   1.9907   2.0239   2.0644   2.0801
     2.1193   2.1374   2.1545   2.1789   2.2083

          k = 0.2500 0.0000-0.2500 ( 84577 PWs)   bands (ev):

   -43.3701 -43.2732 -43.2078 -43.2052 -43.1356 -43.0975 -42.7905 -42.6087
   -24.2903 -24.2776 -24.2542 -24.1895 -24.1819 -24.1594 -24.1326 -24.1310
   -24.1182 -24.1149 -24.0922 -24.0848 -24.0578 -24.0501 -24.0245 -24.0178
   -24.0160 -23.9712 -23.7101 -23.7014 -23.6903 -23.5282 -23.5209 -23.5104
    -8.0006  -7.9699  -7.6410  -7.6162  -7.5644  -7.5547  -7.5299  -7.5177
    -7.5008  -7.4877  -7.4639  -7.4424  -7.4272  -7.3236  -7.2789  -4.2458
    -4.1193  -4.0034  -3.8911  -3.7607  -3.7311  -3.5436  -3.4084  -3.3193
    -3.2606  -3.1892  -3.1036  -3.0298  -2.9196  -2.8040  -2.6177  -2.5907
    -2.4156  -2.3942  -2.2816  -2.1720  -2.0732  -2.0312  -1.9833  -1.8523
    -1.7430  -1.6988  -1.6003  -1.5316  -1.4058  -1.3114  -0.6628  -0.6026
    -0.5093  -0.4628  -0.4402  -0.3919  -0.3831  -0.3304  -0.2908  -0.2487
    -0.2261  -0.1799  -0.1605  -0.1296  -0.1074  -0.0613  -0.0517   0.0112
     0.0295   0.0502   0.1073   0.1295   0.1443   0.1712   0.2114   0.2626
     0.2817   0.2960   0.3374   0.4283   0.4508   0.4834   0.5280   0.5973
     0.6214   0.6580   0.7243   0.7571   0.8017   0.8934   0.9126   0.9591
     1.0356   1.0682   1.1259   1.1921   1.2610   1.2806   1.3342   1.3517
     1.4182   1.4985   1.5223   1.5970   1.6277   1.6929   1.7175   1.7513
     1.8427   1.8621   1.8998   1.9386   1.9979   2.0323   2.0674   2.1004
     2.1161   2.1356   2.1646   2.1764   2.1973

          k =-0.2500 0.0000-0.2500 ( 84577 PWs)   bands (ev):

   -43.3701 -43.2732 -43.2078 -43.2052 -43.1356 -43.0975 -42.7905 -42.6087
   -24.2903 -24.2776 -24.2542 -24.1895 -24.1819 -24.1594 -24.1326 -24.1310
   -24.1182 -24.1149 -24.0922 -24.0848 -24.0578 -24.0501 -24.0245 -24.0178
   -24.0160 -23.9712 -23.7101 -23.7014 -23.6903 -23.5282 -23.5209 -23.5104
    -8.0004  -7.9701  -7.6461  -7.5990  -7.5836  -7.5516  -7.5241  -7.5179
    -7.5016  -7.4894  -7.4616  -7.4458  -7.4246  -7.3235  -7.2793  -4.2171
    -4.1724  -4.0020  -3.8478  -3.7802  -3.6763  -3.5759  -3.4913  -3.3040
    -3.2375  -3.1782  -3.0981  -3.0002  -2.9242  -2.8128  -2.6427  -2.5448
    -2.4819  -2.3774  -2.2759  -2.1489  -2.0995  -2.0261  -1.9588  -1.8456
    -1.7926  -1.6784  -1.5829  -1.5329  -1.3841  -1.3494  -0.6493  -0.6032
    -0.5343  -0.4573  -0.4279  -0.3866  -0.3668  -0.3288  -0.2978  -0.2735
    -0.2123  -0.1937  -0.1554  -0.1206  -0.1029  -0.0638  -0.0438  -0.0143
     0.0072   0.0754   0.1024   0.1259   0.1404   0.2064   0.2303   0.2659
     0.2909   0.3257   0.3460   0.4059   0.4436   0.4679   0.5193   0.5660
     0.6155   0.6580   0.7257   0.7480   0.7800   0.8639   0.9258   0.9925
     1.0344   1.0826   1.1301   1.1788   1.2239   1.2902   1.3155   1.3790
     1.4423   1.4923   1.5450   1.5885   1.6410   1.6733   1.7232   1.7638
     1.8191   1.8708   1.9125   1.9588   1.9810   2.0219   2.0611   2.0902
     2.0996   2.1256   2.1481   2.1768   2.2078

          k = 0.2500-0.2500 0.0000 ( 84577 PWs)   bands (ev):

   -43.3701 -43.2732 -43.2078 -43.2052 -43.1356 -43.0975 -42.7905 -42.6087
   -24.2903 -24.2776 -24.2542 -24.1895 -24.1819 -24.1594 -24.1326 -24.1310
   -24.1182 -24.1148 -24.0922 -24.0848 -24.0578 -24.0501 -24.0245 -24.0178
   -24.0160 -23.9712 -23.7101 -23.7014 -23.6903 -23.5282 -23.5209 -23.5104
    -8.0005  -7.9704  -7.6388  -7.6062  -7.5731  -7.5562  -7.5384  -7.5147
    -7.4983  -7.4863  -7.4695  -7.4370  -7.4277  -7.3225  -7.2792  -4.2354
    -4.1337  -4.0338  -3.8299  -3.7578  -3.7058  -3.5943  -3.4408  -3.3150
    -3.2474  -3.1723  -3.1118  -3.0117  -2.9518  -2.7902  -2.6251  -2.6053
    -2.4574  -2.3671  -2.2610  -2.1558  -2.0814  -2.0510  -1.9457  -1.8301
    -1.7684  -1.6576  -1.5725  -1.5211  -1.4550  -1.3381  -0.7061  -0.5866
    -0.5254  -0.4818  -0.4479  -0.3847  -0.3599  -0.3205  -0.2803  -0.2449
    -0.2120  -0.1865  -0.1554  -0.1370  -0.0998  -0.0712  -0.0272   0.0193
     0.0349   0.0605   0.0974   0.1352   0.1664   0.1855   0.2137   0.2434
     0.2745   0.2971   0.3579   0.3970   0.4276   0.4743   0.5270   0.5686
     0.6265   0.6594   0.6878   0.7550   0.8014   0.8495   0.9035   0.9481
     1.0383   1.0783   1.1358   1.1915   1.2584   1.2717   1.3581   1.3835
     1.4074   1.5063   1.5441   1.6070   1.6576   1.6999   1.7441   1.8038
     1.8453   1.8581   1.9111   1.9568   1.9816   2.0279   2.0545   2.0727
     2.1235   2.1516   2.1698   2.1744   2.2096

          k =-0.2500-0.2500 0.0000 ( 84577 PWs)   bands (ev):

   -43.3701 -43.2732 -43.2078 -43.2052 -43.1356 -43.0975 -42.7905 -42.6087
   -24.2903 -24.2776 -24.2542 -24.1895 -24.1819 -24.1594 -24.1326 -24.1310
   -24.1182 -24.1149 -24.0922 -24.0848 -24.0578 -24.0501 -24.0245 -24.0178
   -24.0160 -23.9712 -23.7101 -23.7014 -23.6903 -23.5282 -23.5209 -23.5104
    -8.0005  -7.9705  -7.6388  -7.6075  -7.5740  -7.5551  -7.5309  -7.5156
    -7.5017  -7.4929  -7.4621  -7.4465  -7.4209  -7.3226  -7.2792  -4.2380
    -4.1371  -4.0119  -3.8472  -3.7855  -3.6921  -3.5568  -3.4475  -3.3464
    -3.2431  -3.2019  -3.0700  -3.0173  -2.9244  -2.8166  -2.6260  -2.5631
    -2.4816  -2.3913  -2.2681  -2.1595  -2.0850  -2.0176  -1.9426  -1.8418
    -1.7460  -1.6824  -1.6057  -1.5017  -1.4157  -1.3571  -0.6927  -0.5987
    -0.5218  -0.4720  -0.4475  -0.4017  -0.3517  -0.3298  -0.2750  -0.2592
    -0.2110  -0.1872  -0.1490  -0.1258  -0.1002  -0.0606  -0.0464  -0.0136
     0.0181   0.0406   0.0735   0.0998   0.1455   0.2242   0.2367   0.2583
     0.2810   0.3086   0.3669   0.4199   0.4538   0.4887   0.5295   0.5456
     0.6439   0.6902   0.7020   0.7783   0.8103   0.8688   0.9135   0.9532
     1.0032   1.0675   1.1247   1.1756   1.2287   1.2836   1.3148   1.3751
     1.4588   1.4819   1.5170   1.5822   1.6723   1.7169   1.7693   1.7896
     1.8276   1.8811   1.9051   1.9360   1.9527   2.0048   2.0598   2.0909
     2.1133   2.1338   2.1550   2.1795   2.2119

          k = 0.2500 0.0000 0.5000 ( 84474 PWs)   bands (ev):

   -43.3701 -43.2732 -43.2078 -43.2052 -43.1356 -43.0975 -42.7905 -42.6087
   -24.2903 -24.2776 -24.2542 -24.1895 -24.1819 -24.1594 -24.1325 -24.1310
   -24.1182 -24.1148 -24.0922 -24.0848 -24.0578 -24.0501 -24.0245 -24.0178
   -24.0160 -23.9712 -23.7101 -23.7014 -23.6903 -23.5282 -23.5209 -23.5104
    -7.9998  -7.9697  -7.6440  -7.6117  -7.5745  -7.5514  -7.5327  -7.5168
    -7.4982  -7.4864  -7.4633  -7.4371  -7.4309  -7.3235  -7.2787  -4.2320
    -4.1516  -4.0016  -3.8647  -3.7793  -3.6975  -3.5290  -3.4578  -3.3024
    -3.2427  -3.1873  -3.1500  -3.0253  -2.9012  -2.8328  -2.6274  -2.5794
    -2.4042  -2.3685  -2.2326  -2.1904  -2.0998  -2.0364  -1.9917  -1.8577
    -1.7732  -1.6977  -1.6037  -1.5444  -1.3715  -1.3008  -0.6736  -0.6210
    -0.5390  -0.4572  -0.4127  -0.3985  -0.3738  -0.3359  -0.2987  -0.2817
    -0.2422  -0.1782  -0.1314  -0.1085  -0.0793  -0.0597  -0.0466  -0.0125
     0.0439   0.0764   0.1313   0.1520   0.1786   0.2175   0.2431   0.2644
     0.2790   0.3210   0.3702   0.4123   0.4563   0.4712   0.5237   0.5567
     0.6060   0.6400   0.7226   0.7849   0.7924   0.8407   0.8789   0.9076
     1.0055   1.0508   1.1313   1.1702   1.2032   1.2571   1.2986   1.3710
     1.3975   1.4329   1.5227   1.5779   1.6570   1.7093   1.7291   1.7750
     1.8427   1.8955   1.9398   1.9751   2.0132   2.0703   2.0845   2.0918
     2.1011   2.1341   2.1550   2.1580   2.1993

          k =-0.5000-0.2500 0.0000 ( 84474 PWs)   bands (ev):

   -43.3701 -43.2732 -43.2078 -43.2052 -43.1356 -43.0975 -42.7905 -42.6087
   -24.2903 -24.2776 -24.2542 -24.1895 -24.1819 -24.1594 -24.1325 -24.1310
   -24.1182 -24.1148 -24.0922 -24.0848 -24.0578 -24.0501 -24.0245 -24.0178
   -24.0160 -23.9712 -23.7101 -23.7014 -23.6903 -23.5282 -23.5209 -23.5104
    -7.9994  -7.9705  -7.6282  -7.6251  -7.5687  -7.5549  -7.5374  -7.5215
    -7.4947  -7.4905  -7.4651  -7.4419  -7.4171  -7.3223  -7.2815  -4.2094
    -4.1743  -4.0329  -3.8133  -3.7786  -3.6487  -3.5806  -3.4730  -3.3145
    -3.2548  -3.2034  -3.0698  -3.0438  -2.9460  -2.8102  -2.6574  -2.5884
    -2.4681  -2.3666  -2.2396  -2.1404  -2.0863  -2.0271  -1.9276  -1.8733
    -1.7549  -1.6399  -1.5792  -1.4950  -1.4491  -1.3842  -0.6962  -0.5920
    -0.5472  -0.4797  -0.4614  -0.4017  -0.3668  -0.3048  -0.2622  -0.2411
    -0.2029  -0.1684  -0.1258  -0.0843  -0.0460  -0.0228  -0.0076   0.0211
     0.0403   0.0709   0.0971   0.1191   0.1506   0.1735   0.1856   0.2223
     0.2666   0.3101   0.3298   0.3417   0.4008   0.4447   0.4920   0.5579
     0.5892   0.6936   0.7242   0.7677   0.8236   0.8476   0.8866   0.9012
     0.9713   1.1049   1.1433   1.1759   1.2104   1.2409   1.2864   1.3414
     1.4257   1.5030   1.5448   1.6593   1.7160   1.7694   1.8015   1.8232
     1.8487   1.8787   1.9184   1.9653   1.9906   2.0485   2.0761   2.0881
     2.1270   2.1442   2.1635   2.1728   2.2000

          k = 0.0000-0.5000 0.2500 ( 84474 PWs)   bands (ev):

   -43.3701 -43.2732 -43.2078 -43.2052 -43.1356 -43.0975 -42.7905 -42.6087
   -24.2903 -24.2776 -24.2542 -24.1895 -24.1819 -24.1594 -24.1325 -24.1310
   -24.1182 -24.1148 -24.0922 -24.0848 -24.0578 -24.0501 -24.0245 -24.0178
   -24.0160 -23.9712 -23.7101 -23.7014 -23.6903 -23.5282 -23.5209 -23.5104
    -8.0001  -7.9703  -7.6348  -7.6020  -7.5888  -7.5568  -7.5283  -7.5160
    -7.5017  -7.4844  -7.4660  -7.4435  -7.4279  -7.3216  -7.2764  -4.2383
    -4.1379  -4.0172  -3.8636  -3.7647  -3.6627  -3.5427  -3.4589  -3.3509
    -3.2407  -3.1998  -3.1386  -3.0100  -2.9533  -2.8029  -2.6162  -2.5179
    -2.4582  -2.3493  -2.3036  -2.1906  -2.0905  -2.0389  -1.8935  -1.8213
    -1.7971  -1.7375  -1.6031  -1.5096  -1.4363  -1.2313  -0.7496  -0.6380
    -0.5583  -0.5180  -0.4746  -0.3922  -0.3440  -0.2838  -0.2519  -0.2283
    -0.2189  -0.1812  -0.1588  -0.1284  -0.1010  -0.0699  -0.0300   0.0102
     0.0317   0.0751   0.1002   0.1548   0.1766   0.1979   0.2275   0.2975
     0.3103   0.3445   0.3772   0.4293   0.4598   0.4925   0.5284   0.5582
     0.6187   0.6583   0.7028   0.7121   0.7599   0.8388   0.9000   0.9457
     0.9916   1.0768   1.1065   1.1441   1.2120   1.2489   1.3390   1.3563
     1.4050   1.4812   1.5304   1.5775   1.5992   1.6334   1.7628   1.8080
     1.8487   1.8970   1.9377   1.9630   2.0064   2.0145   2.0836   2.1129
     2.1243   2.1535   2.1631   2.1867   2.2086

          k = 0.2500-0.5000 0.0000 ( 84474 PWs)   bands (ev):

   -43.3701 -43.2732 -43.2078 -43.2052 -43.1356 -43.0975 -42.7905 -42.6087
   -24.2903 -24.2776 -24.2542 -24.1895 -24.1819 -24.1594 -24.1325 -24.1310
   -24.1182 -24.1148 -24.0922 -24.0848 -24.0578 -24.0501 -24.0245 -24.0178
   -24.0160 -23.9712 -23.7101 -23.7014 -23.6903 -23.5282 -23.5209 -23.5104
    -7.9998  -7.9706  -7.6335  -7.6011  -7.5884  -7.5544  -7.5391  -7.5150
    -7.4996  -7.4874  -7.4690  -7.4367  -7.4239  -7.3216  -7.2789  -4.2345
    -4.1425  -4.0255  -3.8356  -3.7601  -3.6765  -3.5800  -3.4322  -3.3315
    -3.2606  -3.1991  -3.1201  -3.0276  -2.9361  -2.8159  -2.6250  -2.5926
    -2.4459  -2.3591  -2.2397  -2.1605  -2.0913  -2.0426  -1.9221  -1.8409
    -1.7587  -1.6836  -1.5920  -1.4971  -1.4527  -1.3242  -0.7297  -0.6344
    -0.5542  -0.4974  -0.4183  -0.3897  -0.3667  -0.3178  -0.2934  -0.2403
    -0.2053  -0.1775  -0.1407  -0.1321  -0.0769  -0.0494  -0.0301   0.0004
     0.0311   0.0992   0.1166   0.1549   0.1667   0.1946   0.2110   0.2878
     0.3200   0.3369   0.3738   0.4200   0.4531   0.4785   0.5004   0.5607
     0.5812   0.6216   0.6874   0.7131   0.8053   0.8436   0.8543   0.9305
     1.0380   1.0618   1.0943   1.1475   1.2213   1.2690   1.3154   1.3408
     1.4318   1.4669   1.5502   1.6065   1.6658   1.7259   1.7826   1.8092
     1.8647   1.9034   1.9336   1.9586   2.0036   2.0344   2.0688   2.0841
     2.1014   2.1254   2.1631   2.1744   2.2021

          k =-0.5000 0.0000 0.2500 ( 84474 PWs)   bands (ev):

   -43.3701 -43.2732 -43.2078 -43.2052 -43.1356 -43.0975 -42.7905 -42.6087
   -24.2903 -24.2776 -24.2542 -24.1895 -24.1819 -24.1594 -24.1325 -24.1310
   -24.1182 -24.1148 -24.0922 -24.0848 -24.0578 -24.0501 -24.0245 -24.0178
   -24.0160 -23.9712 -23.7101 -23.7014 -23.6903 -23.5282 -23.5209 -23.5104
    -7.9995  -7.9701  -7.6401  -7.6160  -7.5734  -7.5516  -7.5311  -7.5181
    -7.5027  -7.4896  -7.4611  -7.4423  -7.4181  -7.3234  -7.2815  -4.2191
    -4.1639  -4.0122  -3.8729  -3.7641  -3.6625  -3.5605  -3.4447  -3.3008
    -3.2728  -3.2152  -3.0851  -3.0129  -2.9410  -2.8207  -2.6454  -2.5666
    -2.4564  -2.3943  -2.2547  -2.1444  -2.0909  -2.0175  -1.9301  -1.8938
    -1.7465  -1.6611  -1.5838  -1.5333  -1.4270  -1.3512  -0.6700  -0.6117
    -0.5139  -0.4822  -0.4329  -0.3930  -0.3742  -0.3202  -0.2897  -0.2379
    -0.2285  -0.1714  -0.1202  -0.1150  -0.0633  -0.0507  -0.0163   0.0051
     0.0440   0.0779   0.1057   0.1210   0.1423   0.1806   0.2043   0.2455
     0.2753   0.3024   0.3423   0.4123   0.4422   0.4804   0.5048   0.5547
     0.5772   0.6343   0.7166   0.7699   0.8186   0.8675   0.9066   0.9580
     1.0014   1.0623   1.1083   1.1537   1.2155   1.2451   1.2741   1.3502
     1.4464   1.4688   1.5543   1.6080   1.6441   1.7101   1.7371   1.8196
     1.8475   1.9054   1.9131   1.9722   2.0039   2.0251   2.0635   2.0909
     2.1267   2.1448   2.1665   2.1820   2.1927

          k =-0.5000 0.0000 0.5000 ( 84380 PWs)   bands (ev):

   -43.3701 -43.2732 -43.2078 -43.2052 -43.1356 -43.0975 -42.7905 -42.6087
   -24.2903 -24.2776 -24.2542 -24.1895 -24.1819 -24.1594 -24.1325 -24.1310
   -24.1182 -24.1148 -24.0922 -24.0848 -24.0578 -24.0501 -24.0245 -24.0178
   -24.0160 -23.9712 -23.7101 -23.7014 -23.6903 -23.5282 -23.5209 -23.5104
    -7.9989  -7.9696  -7.6429  -7.6078  -7.5845  -7.5502  -7.5341  -7.5212
    -7.4984  -7.4885  -7.4614  -7.4338  -7.4229  -7.3234  -7.2810  -4.2286
    -4.1534  -4.0024  -3.8903  -3.7669  -3.6689  -3.5373  -3.3821  -3.3338
    -3.2795  -3.2238  -3.1303  -3.0179  -2.9406  -2.8182  -2.6236  -2.6017
    -2.4147  -2.3627  -2.2464  -2.1294  -2.1237  -2.0275  -1.9544  -1.8982
    -1.7144  -1.6946  -1.6001  -1.5488  -1.4084  -1.3438  -0.6709  -0.6137
    -0.5022  -0.4538  -0.4347  -0.3934  -0.3799  -0.3450  -0.2927  -0.2680
    -0.2083  -0.1585  -0.1327  -0.1141  -0.0431  -0.0247  -0.0059   0.0277
     0.0530   0.0805   0.0920   0.1191   0.1722   0.1947   0.2165   0.2548
     0.2696   0.3284   0.3455   0.4340   0.4461   0.4616   0.4739   0.4962
     0.5910   0.6587   0.7284   0.7817   0.8006   0.8479   0.8961   0.9371
     1.0170   1.0346   1.0516   1.1617   1.2031   1.2374   1.3428   1.3595
     1.3856   1.4172   1.5087   1.5943   1.6685   1.6984   1.7530   1.7930
     1.8123   1.8961   1.9544   1.9655   2.0138   2.0233   2.0680   2.0956
     2.1253   2.1451   2.1539   2.1754   2.1910

          k =-0.5000 0.5000 0.0000 ( 84380 PWs)   bands (ev):

   -43.3701 -43.2732 -43.2078 -43.2052 -43.1356 -43.0975 -42.7905 -42.6087
   -24.2903 -24.2776 -24.2542 -24.1895 -24.1819 -24.1594 -24.1325 -24.1310
   -24.1182 -24.1148 -24.0921 -24.0848 -24.0578 -24.0501 -24.0245 -24.0178
   -24.0160 -23.9712 -23.7101 -23.7014 -23.6903 -23.5282 -23.5209 -23.5104
    -7.9989  -7.9704  -7.6267  -7.6151  -7.5859  -7.5540  -7.5413  -7.5197
    -7.4940  -7.4872  -7.4698  -7.4335  -7.4200  -7.3212  -7.2811  -4.2096
    -4.1781  -4.0336  -3.8133  -3.7379  -3.6779  -3.5630  -3.4720  -3.3065
    -3.2446  -3.1992  -3.1441  -3.0613  -2.9441  -2.8031  -2.6691  -2.5968
    -2.4446  -2.3304  -2.2172  -2.1410  -2.0623  -2.0574  -1.9405  -1.8752
    -1.7634  -1.6303  -1.5881  -1.4815  -1.4547  -1.3924  -0.7132  -0.5956
    -0.5597  -0.4959  -0.4176  -0.4044  -0.3712  -0.3497  -0.2593  -0.2256
    -0.1649  -0.1459  -0.1061  -0.0633  -0.0312  -0.0105  -0.0028   0.0260
     0.0598   0.0664   0.0768   0.1270   0.1330   0.1746   0.2156   0.2491
     0.2602   0.2778   0.3379   0.3805   0.4245   0.4764   0.5005   0.5251
     0.5604   0.6234   0.6756   0.6861   0.7405   0.8243   0.8611   0.8880
     1.0405   1.0777   1.1363   1.1702   1.2374   1.2599   1.3318   1.4395
     1.4566   1.5324   1.5646   1.5751   1.6527   1.7354   1.7740   1.8101
     1.8429   1.8617   1.9553   2.0136   2.0314   2.0670   2.0857   2.0930
     2.1307   2.1496   2.1554   2.1731   2.1896

          k =-0.2500-0.2500 0.2500 ( 84529 PWs)   bands (ev):

   -43.3701 -43.2732 -43.2078 -43.2052 -43.1356 -43.0975 -42.7905 -42.6087
   -24.2903 -24.2776 -24.2542 -24.1895 -24.1819 -24.1594 -24.1325 -24.1310
   -24.1182 -24.1148 -24.0922 -24.0848 -24.0578 -24.0501 -24.0245 -24.0178
   -24.0160 -23.9712 -23.7101 -23.7014 -23.6903 -23.5282 -23.5209 -23.5104
    -7.9999  -7.9701  -7.6356  -7.6154  -7.5699  -7.5593  -7.5330  -7.5159
    -7.5055  -7.4851  -7.4551  -7.4498  -7.4228  -7.3226  -7.2786  -4.2440
    -4.1227  -4.0163  -3.8839  -3.7569  -3.6919  -3.5294  -3.4205  -3.3447
    -3.2843  -3.1959  -3.0969  -3.0471  -2.9078  -2.8230  -2.5950  -2.5614
    -2.4852  -2.3738  -2.2562  -2.1657  -2.0865  -2.0225  -1.9523  -1.8752
    -1.7443  -1.7098  -1.6000  -1.5174  -1.4096  -1.3035  -0.6974  -0.6030
    -0.5325  -0.4844  -0.4327  -0.3781  -0.3549  -0.3282  -0.2801  -0.2491
    -0.2096  -0.1695  -0.1522  -0.1101  -0.0881  -0.0516  -0.0445  -0.0048
     0.0343   0.0526   0.0907   0.1236   0.1520   0.1945   0.2209   0.2708
     0.2951   0.3180   0.3676   0.4086   0.4560   0.4778   0.5149   0.5351
     0.6195   0.6629   0.6925   0.7501   0.8253   0.8427   0.8739   0.9257
     0.9542   1.0490   1.1305   1.1737   1.2506   1.3047   1.3532   1.3835
     1.4219   1.5124   1.5489   1.5632   1.6017   1.6406   1.7666   1.8052
     1.8474   1.8955   1.9267   1.9784   2.0042   2.0411   2.0767   2.0904
     2.1147   2.1329   2.1559   2.1790   2.2046

          k =-0.2500 0.2500-0.2500 ( 84529 PWs)   bands (ev):

   -43.3701 -43.2732 -43.2078 -43.2052 -43.1356 -43.0975 -42.7905 -42.6087
   -24.2903 -24.2776 -24.2542 -24.1895 -24.1819 -24.1594 -24.1326 -24.1310
   -24.1182 -24.1148 -24.0922 -24.0848 -24.0578 -24.0501 -24.0245 -24.0178
   -24.0160 -23.9712 -23.7101 -23.7014 -23.6903 -23.5282 -23.5209 -23.5104
    -7.9998  -7.9701  -7.6417  -7.5978  -7.5833  -7.5600  -7.5330  -7.5196
    -7.5023  -7.4813  -7.4582  -7.4434  -7.4270  -7.3223  -7.2790  -4.2164
    -4.1696  -4.0216  -3.8403  -3.7474  -3.6934  -3.5511  -3.4693  -3.3165
    -3.2726  -3.1831  -3.1278  -2.9921  -2.9219  -2.8236  -2.6597  -2.5726
    -2.4259  -2.3668  -2.2614  -2.1693  -2.0711  -2.0183  -1.9838  -1.8402
    -1.7830  -1.7029  -1.5668  -1.5295  -1.4143  -1.3178  -0.6957  -0.6239
    -0.5449  -0.4932  -0.3967  -0.3899  -0.3299  -0.3031  -0.2809  -0.2477
    -0.2058  -0.1754  -0.1323  -0.1119  -0.1010  -0.0554  -0.0428  -0.0016
     0.0249   0.0796   0.1067   0.1262   0.1517   0.1945   0.2172   0.2449
     0.3076   0.3233   0.3481   0.3943   0.4474   0.4749   0.5069   0.5515
     0.5891   0.6599   0.6825   0.7569   0.7761   0.8125   0.8655   0.9383
     1.0153   1.0671   1.1053   1.1714   1.2281   1.2897   1.3519   1.3817
     1.4341   1.4968   1.5321   1.5847   1.6515   1.6931   1.7442   1.8207
     1.8567   1.9009   1.9326   1.9687   1.9975   2.0574   2.0858   2.0948
     2.1206   2.1348   2.1587   2.1693   2.1957

          k = 0.2500-0.2500-0.2500 ( 84529 PWs)   bands (ev):

   -43.3701 -43.2732 -43.2078 -43.2052 -43.1356 -43.0975 -42.7905 -42.6087
   -24.2903 -24.2776 -24.2542 -24.1895 -24.1819 -24.1594 -24.1326 -24.1310
   -24.1182 -24.1148 -24.0922 -24.0848 -24.0578 -24.0501 -24.0245 -24.0178
   -24.0160 -23.9712 -23.7101 -23.7014 -23.6903 -23.5282 -23.5209 -23.5104
    -8.0000  -7.9700  -7.6331  -7.6173  -7.5735  -7.5591  -7.5306  -7.5203
    -7.4972  -7.4843  -7.4676  -7.4348  -7.4296  -7.3228  -7.2785  -4.2414
    -4.1292  -4.0168  -3.8842  -3.7382  -3.6920  -3.5680  -3.3991  -3.3290
    -3.2517  -3.1985  -3.1311  -3.0480  -2.9663  -2.7672  -2.6419  -2.5631
    -2.4500  -2.3495  -2.2304  -2.1727  -2.0989  -2.0592  -1.9575  -1.8398
    -1.7590  -1.6665  -1.6380  -1.5198  -1.4249  -1.2926  -0.7237  -0.5832
    -0.5252  -0.4881  -0.4435  -0.3881  -0.3413  -0.3161  -0.2587  -0.2332
    -0.2133  -0.1923  -0.1444  -0.1266  -0.0960  -0.0561  -0.0234   0.0018
     0.0155   0.0567   0.0927   0.1273   0.1694   0.1978   0.2266   0.2463
     0.2864   0.3171   0.3313   0.4007   0.4287   0.4744   0.5079   0.5525
     0.6415   0.6942   0.7259   0.7449   0.8149   0.8628   0.9025   0.9453
     0.9689   1.0188   1.1339   1.1900   1.2340   1.2567   1.2994   1.3793
     1.4248   1.4778   1.5255   1.5664   1.6180   1.6691   1.7419   1.8033
     1.8644   1.9123   1.9530   1.9839   2.0214   2.0424   2.0709   2.1048
     2.1163   2.1396   2.1630   2.1814   2.2039

          k =-0.2500 0.2500 0.5000 ( 84496 PWs)   bands (ev):

   -43.3701 -43.2732 -43.2078 -43.2052 -43.1356 -43.0975 -42.7905 -42.6087
   -24.2903 -24.2776 -24.2542 -24.1895 -24.1819 -24.1594 -24.1325 -24.1310
   -24.1182 -24.1148 -24.0922 -24.0848 -24.0578 -24.0501 -24.0245 -24.0178
   -24.0160 -23.9712 -23.7101 -23.7014 -23.6903 -23.5282 -23.5209 -23.5104
    -7.9993  -7.9697  -7.6377  -7.6111  -7.5793  -7.5573  -7.5370  -7.5214
    -7.4968  -7.4813  -7.4572  -7.4414  -7.4283  -7.3226  -7.2783  -4.2279
    -4.1568  -4.0110  -3.8822  -3.7391  -3.6712  -3.5318  -3.4368  -3.3148
    -3.2822  -3.1936  -3.1706  -3.0096  -2.9584  -2.7852  -2.6638  -2.5562
    -2.4096  -2.3459  -2.2333  -2.1823  -2.0854  -2.0471  -1.9887  -1.8480
    -1.7704  -1.7154  -1.6012  -1.5459  -1.3870  -1.2773  -0.7245  -0.6171
    -0.5467  -0.4919  -0.4242  -0.3703  -0.3192  -0.2877  -0.2613  -0.2219
    -0.2083  -0.1776  -0.1464  -0.1168  -0.0705  -0.0456  -0.0315   0.0007
     0.0151   0.0630   0.1083   0.1340   0.1692   0.2018   0.2325   0.2496
     0.2891   0.3162   0.3645   0.3854   0.4136   0.4766   0.5369   0.5419
     0.5868   0.6396   0.7069   0.7569   0.7762   0.8377   0.8706   0.9258
     0.9507   1.0447   1.1169   1.1554   1.1939   1.2355   1.3375   1.3718
     1.4041   1.4625   1.5316   1.6047   1.6604   1.6930   1.7391   1.8211
     1.8560   1.9071   1.9656   2.0104   2.0357   2.0531   2.0825   2.1020
     2.1325   2.1391   2.1674   2.1877   2.2002

          k =-0.5000-0.2500 0.2500 ( 84496 PWs)   bands (ev):

   -43.3701 -43.2732 -43.2078 -43.2052 -43.1356 -43.0975 -42.7905 -42.6087
   -24.2903 -24.2776 -24.2542 -24.1895 -24.1819 -24.1594 -24.1325 -24.1310
   -24.1182 -24.1148 -24.0922 -24.0848 -24.0578 -24.0501 -24.0245 -24.0178
   -24.0160 -23.9712 -23.7101 -23.7014 -23.6903 -23.5282 -23.5209 -23.5104
    -7.9989  -7.9700  -7.6342  -7.6160  -7.5740  -7.5550  -7.5452  -7.5174
    -7.5042  -7.4828  -7.4541  -7.4456  -7.4176  -7.3224  -7.2811  -4.2186
    -4.1637  -4.0276  -3.8632  -3.7368  -3.6472  -3.5609  -3.4520  -3.3101
    -3.2693  -3.2372  -3.1139  -3.0237  -2.9362  -2.8093  -2.6559  -2.5628
    -2.4749  -2.3580  -2.2325  -2.1332  -2.1020  -2.0288  -1.9239  -1.9020
    -1.7470  -1.6643  -1.5979  -1.5207  -1.4059  -1.3702  -0.6938  -0.6150
    -0.5441  -0.4936  -0.4219  -0.3622  -0.3215  -0.2980  -0.2684  -0.2292
    -0.1908  -0.1769  -0.1229  -0.1019  -0.0552  -0.0260  -0.0087   0.0243
     0.0416   0.0668   0.0975   0.1068   0.1590   0.1789   0.2040   0.2325
     0.2773   0.2928   0.3148   0.3743   0.4147   0.4393   0.5114   0.5360
     0.5676   0.6491   0.7231   0.7508   0.7869   0.8405   0.8664   0.9049
     0.9774   1.0174   1.0817   1.1570   1.2527   1.2796   1.3550   1.3928
     1.4617   1.4806   1.5234   1.6361   1.6917   1.7036   1.7665   1.7846
     1.8476   1.9123   1.9616   1.9820   2.0111   2.0326   2.0606   2.1085
     2.1355   2.1561   2.1637   2.1868   2.1962

          k = 0.5000-0.2500-0.2500 ( 84496 PWs)   bands (ev):

   -43.3701 -43.2732 -43.2078 -43.2052 -43.1356 -43.0975 -42.7905 -42.6087
   -24.2903 -24.2776 -24.2542 -24.1895 -24.1819 -24.1594 -24.1325 -24.1310
   -24.1182 -24.1148 -24.0922 -24.0848 -24.0578 -24.0501 -24.0245 -24.0178
   -24.0160 -23.9712 -23.7101 -23.7014 -23.6903 -23.5282 -23.5209 -23.5104
    -7.9990  -7.9700  -7.6335  -7.6152  -7.5799  -7.5538  -7.5412  -7.5194
    -7.4981  -7.4861  -7.4628  -7.4357  -7.4207  -7.3223  -7.2811  -4.2183
    -4.1674  -4.0247  -3.8482  -3.7492  -3.6753  -3.5186  -3.4605  -3.3129
    -3.2829  -3.2180  -3.1135  -3.0171  -2.9775  -2.7866  -2.6731  -2.5813
    -2.4255  -2.3513  -2.2431  -2.1520  -2.0760  -2.0144  -1.9670  -1.8831
    -1.7452  -1.6526  -1.6144  -1.5240  -1.4200  -1.3560  -0.7090  -0.5909
    -0.5456  -0.4789  -0.4403  -0.4049  -0.3254  -0.2847  -0.2473  -0.2256
    -0.1952  -0.1552  -0.1299  -0.0874  -0.0584  -0.0438  -0.0126  -0.0051
     0.0367   0.0761   0.1046   0.1197   0.1604   0.1836   0.2028   0.2189
     0.2432   0.2867   0.3253   0.3464   0.4109   0.4859   0.4979   0.5467
     0.6050   0.6842   0.7287   0.7501   0.8033   0.8431   0.8916   0.9500
     0.9836   1.0153   1.0662   1.1391   1.2187   1.2333   1.3198   1.3584
     1.4171   1.4808   1.5461   1.6145   1.6826   1.7454   1.7759   1.8177
     1.8630   1.9215   1.9554   1.9706   2.0261   2.0467   2.0672   2.1024
     2.1141   2.1496   2.1629   2.1916   2.2059

          k =-0.2500-0.5000 0.2500 ( 84496 PWs)   bands (ev):

   -43.3701 -43.2732 -43.2078 -43.2052 -43.1356 -43.0975 -42.7905 -42.6087
   -24.2903 -24.2776 -24.2542 -24.1895 -24.1819 -24.1594 -24.1326 -24.1310
   -24.1182 -24.1148 -24.0922 -24.0848 -24.0578 -24.0501 -24.0245 -24.0178
   -24.0160 -23.9712 -23.7101 -23.7014 -23.6903 -23.5282 -23.5209 -23.5104
    -7.9993  -7.9702  -7.6273  -7.6122  -7.5873  -7.5608  -7.5332  -7.5175
    -7.5008  -7.4841  -7.4622  -7.4411  -7.4228  -7.3218  -7.2783  -4.2395
    -4.1323  -4.0271  -3.8802  -3.7330  -3.6285  -3.5853  -3.4027  -3.3563
    -3.2737  -3.2160  -3.1019  -3.0801  -2.9564  -2.7889  -2.6173  -2.5338
    -2.4866  -2.3508  -2.2234  -2.1545  -2.1132  -2.0503  -1.9228  -1.8668
    -1.7491  -1.7034  -1.6185  -1.5091  -1.4327  -1.2787  -0.7400  -0.6119
    -0.5650  -0.4790  -0.4390  -0.3639  -0.3491  -0.3040  -0.2773  -0.2278
    -0.1956  -0.1662  -0.1363  -0.1264  -0.0730  -0.0414  -0.0195   0.0244
     0.0361   0.0888   0.1084   0.1416   0.1753   0.2116   0.2209   0.2505
     0.3028   0.3171   0.3348   0.3750   0.4063   0.4626   0.4977   0.5435
     0.6111   0.6231   0.6915   0.7312   0.7668   0.8167   0.8981   0.9238
     1.0179   1.0587   1.0862   1.1624   1.2158   1.2682   1.3164   1.3800
     1.4258   1.4715   1.5056   1.6178   1.6561   1.7018   1.7530   1.8267
     1.8732   1.9087   1.9461   1.9778   2.0181   2.0568   2.0687   2.0889
     2.1109   2.1441   2.1538   2.1780   2.2050

          k =-0.2500 0.5000-0.2500 ( 84496 PWs)   bands (ev):

   -43.3701 -43.2732 -43.2078 -43.2052 -43.1356 -43.0975 -42.7905 -42.6087
   -24.2903 -24.2776 -24.2542 -24.1895 -24.1819 -24.1594 -24.1326 -24.1310
   -24.1182 -24.1148 -24.0922 -24.0848 -24.0578 -24.0501 -24.0245 -24.0178
   -24.0160 -23.9712 -23.7101 -23.7014 -23.6903 -23.5282 -23.5209 -23.5104
    -7.9993  -7.9701  -7.6346  -7.5968  -7.5932  -7.5599  -7.5376  -7.5188
    -7.5014  -7.4823  -7.4603  -7.4378  -7.4268  -7.3212  -7.2787  -4.2145
    -4.1739  -4.0287  -3.8224  -3.7557  -3.6617  -3.5550  -3.4542  -3.3239
    -3.2826  -3.2034  -3.1484  -2.9914  -2.9666  -2.7961  -2.6754  -2.5617
    -2.3946  -2.3604  -2.2618  -2.1735  -2.0721  -2.0280  -1.9424  -1.8579
    -1.7721  -1.7063  -1.5977  -1.5193  -1.4180  -1.2970  -0.7284  -0.6368
    -0.5679  -0.5234  -0.4250  -0.3486  -0.3173  -0.2787  -0.2578  -0.2253
    -0.1999  -0.1600  -0.1430  -0.0907  -0.0780  -0.0436  -0.0338   0.0101
     0.0306   0.0644   0.0963   0.1262   0.1598   0.1974   0.2129   0.2524
     0.2781   0.3073   0.3785   0.4144   0.4355   0.4833   0.5082   0.5554
     0.5887   0.6242   0.6732   0.7199   0.7715   0.8117   0.8922   0.9191
     0.9929   1.0522   1.0940   1.1265   1.2012   1.2455   1.3566   1.3765
     1.4224   1.4932   1.5716   1.6097   1.6331   1.7189   1.7710   1.8221
     1.8521   1.9113   1.9550   2.0027   2.0278   2.0402   2.0768   2.0874
     2.1138   2.1458   2.1593   2.1726   2.2062

          k =-0.5000 0.2500 0.5000 ( 84608 PWs)   bands (ev):

   -43.3701 -43.2732 -43.2078 -43.2052 -43.1356 -43.0976 -42.7905 -42.6087
   -24.2904 -24.2776 -24.2542 -24.1896 -24.1819 -24.1594 -24.1326 -24.1310
   -24.1182 -24.1149 -24.0922 -24.0848 -24.0579 -24.0501 -24.0245 -24.0178
   -24.0160 -23.9712 -23.7101 -23.7014 -23.6903 -23.5282 -23.5209 -23.5104
    -7.9985  -7.9696  -7.6364  -7.6071  -7.5864  -7.5550  -7.5439  -7.5254
    -7.4995  -7.4792  -7.4561  -7.4369  -7.4215  -7.3225  -7.2807  -4.2265
    -4.1550  -4.0253  -3.8733  -3.7368  -3.6583  -3.5178  -3.3815  -3.3647
    -3.2913  -3.2550  -3.1374  -3.0087  -2.9642  -2.7892  -2.6611  -2.5856
    -2.4065  -2.3487  -2.2336  -2.1420  -2.0992  -2.0311  -1.9616  -1.8995
    -1.7184  -1.6974  -1.6071  -1.5558  -1.3802  -1.3553  -0.7115  -0.6096
    -0.5400  -0.4743  -0.4003  -0.3736  -0.3550  -0.2902  -0.2326  -0.2136
    -0.1907  -0.1311  -0.1205  -0.0885  -0.0623  -0.0302   0.0078   0.0239
     0.0339   0.0681   0.1010   0.1130   0.1426   0.1833   0.2144   0.2565
     0.2703   0.3003   0.3159   0.3353   0.4181   0.4566   0.4714   0.5042
     0.5875   0.6238   0.6966   0.7550   0.7983   0.8420   0.8909   0.9158
     0.9454   1.0088   1.0893   1.1256   1.2305   1.2902   1.3207   1.3741
     1.4175   1.4519   1.5357   1.6359   1.6915   1.7394   1.7685   1.8039
     1.8414   1.9229   1.9578   1.9913   2.0345   2.0606   2.0742   2.1044
     2.1194   2.1470   2.1548   2.1639   2.1804

          k =-0.5000 0.5000 0.2500 ( 84608 PWs)   bands (ev):

   -43.3701 -43.2732 -43.2078 -43.2052 -43.1356 -43.0976 -42.7905 -42.6087
   -24.2903 -24.2777 -24.2542 -24.1896 -24.1819 -24.1594 -24.1326 -24.1310
   -24.1182 -24.1149 -24.0922 -24.0848 -24.0578 -24.0501 -24.0245 -24.0178
   -24.0160 -23.9712 -23.7101 -23.7014 -23.6903 -23.5282 -23.5209 -23.5104
    -7.9984  -7.9700  -7.6274  -7.6105  -7.5881  -7.5590  -7.5481  -7.5182
    -7.5002  -7.4817  -7.4591  -7.4358  -7.4202  -7.3214  -7.2807  -4.2178
    -4.1672  -4.0371  -3.8440  -3.7003  -3.6819  -3.5142  -3.4695  -3.3258
    -3.2601  -3.2442  -3.1573  -3.0334  -2.9579  -2.7810  -2.6876  -2.5695
    -2.4372  -2.3289  -2.2196  -2.1479  -2.0650  -2.0381  -1.9681  -1.8821
    -1.7488  -1.6562  -1.6214  -1.5177  -1.4155  -1.3559  -0.7261  -0.6065
    -0.5652  -0.5009  -0.4093  -0.3553  -0.3172  -0.2852  -0.2561  -0.1891
    -0.1694  -0.1400  -0.1071  -0.0845  -0.0386  -0.0179  -0.0116   0.0323
     0.0517   0.0633   0.1067   0.1164   0.1407   0.1573   0.2011   0.2429
     0.2595   0.2838   0.3043   0.3486   0.3821   0.4363   0.4974   0.5350
     0.5623   0.6276   0.6671   0.7124   0.7666   0.8103   0.8667   0.9155
     0.9736   1.0263   1.0834   1.1319   1.2454   1.2751   1.3509   1.4159
     1.4734   1.5229   1.5587   1.6545   1.6973   1.7189   1.7720   1.8196
     1.8735   1.8997   1.9410   1.9962   2.0360   2.0564   2.0685   2.0942
     2.1031   2.1434   2.1683   2.1747   2.2037

     the Fermi energy is     1.1985 ev

!    total energy              =   -3121.68588160 Ry

     total all-electron energy =    -36200.231796 Ry
     estimated scf accuracy    <       0.00001341 Ry
     smearing contrib. (-TS)   =      -0.00013005 Ry
     internal energy E=F+TS    =   -3121.68575155 Ry

     The total energy is F=E-TS. E is the sum of the following terms:
     one-electron contribution =    -415.04230544 Ry
     hartree contribution      =     251.96049666 Ry
     xc contribution           =    -227.64812118 Ry
     ewald contribution        =    -546.71753627 Ry
     one-center paw contrib.   =   -2184.23828532 Ry

     convergence has been achieved in  17 iterations

     Forces acting on atoms (cartesian axes, Ry/au):

     atom    1 type  1   force =    -0.00056020    0.00268171    0.00427463
     atom    2 type  1   force =    -0.00230064   -0.00109912    0.00123763
     atom    3 type  1   force =     0.00169762   -0.00034066   -0.00495935
     atom    4 type  1   force =     0.00091064   -0.00202811    0.00037693
     atom    5 type  1   force =    -0.00055614    0.00173106   -0.00095042
     atom    6 type  1   force =     0.00219951    0.00038850    0.00097191
     atom    7 type  1   force =     0.00183010   -0.00159387   -0.00054658
     atom    8 type  1   force =    -0.00088405    0.00154073    0.00142121
     atom    9 type  3   force =    -0.00369156   -0.00819156   -0.00398384
     atom   10 type  3   force =    -0.01163489   -0.00884777   -0.01261624
     atom   11 type  3   force =     0.00773053   -0.01849669    0.00256985
     atom   12 type  3   force =     0.00405791    0.01217085   -0.00585712
     atom   13 type  2   force =     0.00212914    0.00701149   -0.00096207
     atom   14 type  3   force =     0.01727321    0.00210560   -0.00224313
     atom   15 type  3   force =     0.01358270   -0.00359972   -0.00669700
     atom   16 type  3   force =    -0.01532824    0.00714562    0.00175754
     atom   17 type  2   force =    -0.00091631   -0.00282204   -0.01163566
     atom   18 type  3   force =    -0.00247073    0.00061634   -0.00608547
     atom   19 type  2   force =    -0.00819547   -0.00209676   -0.00019945
     atom   20 type  3   force =    -0.01012791   -0.00131197   -0.00992277
     atom   21 type  2   force =    -0.00946217   -0.01518953   -0.00053088
     atom   22 type  3   force =     0.00756869    0.01356121    0.01345827
     atom   23 type  2   force =     0.00203685   -0.00000078    0.01012200
     atom   24 type  3   force =    -0.01370533   -0.00565969   -0.00724481
     atom   25 type  3   force =     0.01327983   -0.01635126    0.00407869
     atom   26 type  3   force =     0.00357735   -0.00064742    0.00465489
     atom   27 type  2   force =    -0.00045175    0.01031040    0.00069851
     atom   28 type  2   force =     0.00697360   -0.01253507   -0.00219043
     atom   29 type  3   force =    -0.01115566    0.00431747   -0.00008409
     atom   30 type  3   force =     0.00118034   -0.01109848    0.00092869
     atom   31 type  3   force =    -0.00844227    0.00235267    0.00614719
     atom   32 type  3   force =     0.00641014   -0.01165777    0.00382544
     atom   33 type  2   force =    -0.00036658    0.00619179    0.00045025
     atom   34 type  2   force =     0.00315575   -0.00113738   -0.00201012
     atom   35 type  3   force =    -0.00016643   -0.01329861    0.01252636
     atom   36 type  2   force =     0.00011555    0.00386663   -0.00103913
     atom   37 type  3   force =     0.01004823    0.00744486    0.00445333
     atom   38 type  2   force =    -0.01031686   -0.01058359   -0.00076293
[...]
    -2.4204  -2.2465  -2.1181  -2.0462  -1.8904  -1.6835  -1.6204  -1.5948
    -1.5146  -1.4644  -1.3911  -1.3471  -1.2539  -1.1586  -0.9717  -0.8514
    -0.8181  -0.7356  -0.6588  -0.6279  -0.4877  -0.4544  -0.4071  -0.3366
    -0.2348  -0.1753  -0.1428  -0.0749  -0.0242   0.0369   0.1473   0.1917
     0.2797   0.3081   0.3535   0.4212   0.5073   0.5688   0.6607   0.6808
     0.7141   0.7666   0.8493   0.8689   0.9347   0.9891   1.0622   1.0972
     1.1445   1.2031   1.2628   1.3446   1.3879   1.4463   1.5219   1.5552
     1.6288   1.6542   1.7249   1.7802   1.8048   1.8586   1.9097   1.9479
     1.9701   2.0438   2.0848   2.1236   2.1792   2.1948   2.2363   2.2854
     2.3197   2.3399   2.3694   2.4001   2.4245

          k =-0.5000-0.2500 0.2500 ( 84496 PWs)   bands (ev):

   -42.9324 -42.8488 -42.6806 -42.6610 -42.5304 -42.4470 -41.5274 -40.3408
   -23.8685 -23.8523 -23.8006 -23.7939 -23.7498 -23.7299 -23.6280 -23.6003
   -23.5939 -23.5706 -23.5697 -23.5585 -23.4840 -23.4341 -23.4331 -23.3998
   -23.3595 -23.3400 -22.4973 -22.4783 -22.4387 -21.4248 -21.3901 -21.3270
   -10.5888  -9.7827  -9.2895  -9.0415  -8.9255  -8.8987  -8.8043  -8.7718
    -8.7570  -8.6933  -8.6074  -8.4336  -7.9032  -7.6686  -6.6389  -4.4168
    -4.2746  -4.1902  -4.1359  -4.0941  -3.9431  -3.7473  -3.6668  -3.6067
    -3.4736  -3.4230  -3.3968  -3.3336  -3.1973  -3.1416  -3.1083  -3.0000
    -2.9389  -2.8972  -2.8398  -2.7814  -2.6540  -2.6121  -2.5563  -2.4802
    -2.4076  -2.2430  -2.0848  -2.0036  -1.9165  -1.6822  -1.6205  -1.5676
    -1.5102  -1.4718  -1.4018  -1.3298  -1.2535  -1.1677  -0.9806  -0.8749
    -0.8122  -0.7022  -0.6357  -0.5908  -0.5596  -0.4559  -0.4286  -0.3336
    -0.2887  -0.1949  -0.1358  -0.0601  -0.0175   0.0753   0.0838   0.1641
     0.2511   0.3410   0.3710   0.4561   0.5576   0.5733   0.6617   0.6820
     0.7200   0.7932   0.8467   0.8940   0.9439   0.9892   1.0521   1.0900
     1.1835   1.2073   1.2263   1.3066   1.3952   1.4394   1.5029   1.5258
     1.6208   1.6807   1.7074   1.7535   1.7950   1.8239   1.8967   1.9538
     1.9933   2.0608   2.1377   2.1458   2.1728   2.2027   2.2408   2.2666
     2.2992   2.3325   2.3617   2.3748   2.4314

          k = 0.5000-0.2500-0.2500 ( 84496 PWs)   bands (ev):

   -42.9324 -42.8488 -42.6806 -42.6610 -42.5304 -42.4470 -41.5274 -40.3408
   -23.8685 -23.8523 -23.8006 -23.7939 -23.7498 -23.7299 -23.6280 -23.6003
   -23.5939 -23.5706 -23.5697 -23.5585 -23.4840 -23.4341 -23.4331 -23.3998
   -23.3595 -23.3400 -22.4973 -22.4783 -22.4387 -21.4248 -21.3901 -21.3270
   -10.5888  -9.7827  -9.2895  -9.0414  -8.9232  -8.9030  -8.8027  -8.7699
    -8.7564  -8.6962  -8.6067  -8.4336  -7.9032  -7.6686  -6.6389  -4.4166
    -4.2725  -4.1875  -4.1284  -4.1127  -3.9450  -3.7273  -3.6562  -3.6179
    -3.5126  -3.4219  -3.3836  -3.2885  -3.1936  -3.1651  -3.1126  -3.0234
    -2.9500  -2.9110  -2.8263  -2.7405  -2.6624  -2.6148  -2.5648  -2.4671
    -2.4072  -2.2363  -2.0847  -2.0410  -1.9077  -1.6807  -1.6012  -1.5641
    -1.5081  -1.4677  -1.3990  -1.3484  -1.2633  -1.1457  -0.9858  -0.8716
    -0.7793  -0.7428  -0.6275  -0.6063  -0.5493  -0.4911  -0.4395  -0.3477
    -0.2649  -0.2139  -0.1176  -0.0213   0.0052   0.0670   0.0768   0.1899
     0.2678   0.2960   0.4180   0.4386   0.5056   0.5846   0.6379   0.6816
     0.7242   0.7600   0.8707   0.9164   0.9477   0.9760   1.0703   1.0987
     1.1742   1.1967   1.2646   1.2891   1.3494   1.4332   1.4865   1.5585
     1.6054   1.6755   1.7109   1.7750   1.8108   1.8535   1.9025   1.9660
     2.0198   2.0626   2.0736   2.1409   2.1790   2.1950   2.2572   2.2757
     2.3012   2.3551   2.3763   2.3841   2.4209

          k =-0.2500-0.5000 0.2500 ( 84496 PWs)   bands (ev):

   -42.9324 -42.8488 -42.6806 -42.6610 -42.5304 -42.4470 -41.5274 -40.3408
   -23.8685 -23.8523 -23.8006 -23.7939 -23.7498 -23.7299 -23.6280 -23.6003
   -23.5939 -23.5706 -23.5697 -23.5585 -23.4840 -23.4341 -23.4330 -23.3998
   -23.3595 -23.3400 -22.4973 -22.4783 -22.4387 -21.4248 -21.3901 -21.3270
   -10.5888  -9.7827  -9.2896  -9.0431  -8.9184  -8.9038  -8.8070  -8.7671
    -8.7569  -8.6939  -8.6096  -8.4338  -7.9032  -7.6680  -6.6386  -4.4183
    -4.2752  -4.1907  -4.1261  -4.1007  -3.9395  -3.7479  -3.6884  -3.6025
    -3.4724  -3.4272  -3.3768  -3.3198  -3.2292  -3.1716  -3.1064  -2.9890
    -2.9248  -2.8766  -2.8427  -2.7537  -2.6703  -2.6065  -2.5501  -2.4905
    -2.4095  -2.2577  -2.1108  -1.9834  -1.8952  -1.7014  -1.5990  -1.5770
    -1.4901  -1.4680  -1.3831  -1.3390  -1.2625  -1.1745  -0.9600  -0.8561
    -0.8230  -0.7510  -0.6696  -0.5860  -0.5465  -0.4667  -0.4130  -0.3603
    -0.2833  -0.2010  -0.1156  -0.0854   0.0284   0.0798   0.1032   0.1679
     0.2706   0.3117   0.3390   0.4507   0.5308   0.5961   0.6468   0.6973
     0.7283   0.7535   0.8075   0.8749   0.9269   0.9994   1.0817   1.1325
     1.1518   1.2188   1.2871   1.3176   1.3823   1.4131   1.4734   1.5093
     1.5753   1.6644   1.7270   1.7664   1.8564   1.8791   1.9486   1.9825
     2.0328   2.0553   2.0902   2.1307   2.1638   2.1854   2.2427   2.2810
     2.3139   2.3404   2.3793   2.3921   2.4239

          k =-0.2500 0.5000-0.2500 ( 84496 PWs)   bands (ev):

   -42.9324 -42.8488 -42.6806 -42.6610 -42.5304 -42.4470 -41.5274 -40.3408
   -23.8685 -23.8523 -23.8006 -23.7939 -23.7498 -23.7299 -23.6280 -23.6003
   -23.5939 -23.5706 -23.5697 -23.5585 -23.4840 -23.4341 -23.4330 -23.3998
   -23.3595 -23.3400 -22.4973 -22.4783 -22.4387 -21.4248 -21.3901 -21.3270
   -10.5888  -9.7827  -9.2896  -9.0424  -8.9217  -8.9022  -8.8016  -8.7740
    -8.7552  -8.6928  -8.6099  -8.4338  -7.9032  -7.6680  -6.6386  -4.4213
    -4.2700  -4.1914  -4.1296  -4.1006  -3.9380  -3.7466  -3.6407  -3.6149
    -3.5320  -3.4325  -3.3710  -3.3114  -3.2271  -3.1591  -3.0911  -3.0290
    -2.9224  -2.9027  -2.8018  -2.7636  -2.6320  -2.5909  -2.5618  -2.4927
    -2.4188  -2.2333  -2.1424  -1.9756  -1.9308  -1.6939  -1.6378  -1.5387
    -1.4807  -1.4524  -1.3751  -1.3354  -1.2672  -1.1782  -1.0095  -0.8592
    -0.7883  -0.7423  -0.7253  -0.5785  -0.5180  -0.4383  -0.3999  -0.3344
    -0.3124  -0.1944  -0.1370  -0.0635   0.0335   0.0850   0.1138   0.1624
     0.1690   0.3475   0.3965   0.4493   0.5172   0.5813   0.6144   0.6783
     0.7461   0.7963   0.8412   0.8801   0.9384   0.9830   1.0581   1.0812
     1.1494   1.2028   1.2712   1.2861   1.3393   1.4302   1.4690   1.5776
     1.6342   1.6544   1.6999   1.7641   1.8557   1.8882   1.9307   1.9671
     2.0175   2.0538   2.1248   2.1805   2.2037   2.2193   2.2575   2.2832
     2.3091   2.3437   2.3747   2.3878   2.4314

          k =-0.5000 0.2500 0.5000 ( 84608 PWs)   bands (ev):

   -42.9324 -42.8488 -42.6806 -42.6610 -42.5304 -42.4471 -41.5274 -40.3408
   -23.8685 -23.8524 -23.8006 -23.7940 -23.7498 -23.7299 -23.6280 -23.6003
   -23.5940 -23.5706 -23.5697 -23.5585 -23.4840 -23.4341 -23.4331 -23.3998
   -23.3596 -23.3400 -22.4973 -22.4784 -22.4387 -21.4248 -21.3901 -21.3270
   -10.5888  -9.7826  -9.2897  -9.0410  -8.9264  -8.9005  -8.8046  -8.7674
    -8.7571  -8.6955  -8.6074  -8.4330  -7.9032  -7.6686  -6.6388  -4.4169
    -4.2730  -4.1856  -4.1427  -4.1011  -3.9475  -3.7337  -3.6549  -3.5925
    -3.5271  -3.4317  -3.3867  -3.3280  -3.1926  -3.1677  -3.0875  -3.0009
    -2.9401  -2.8961  -2.8109  -2.7482  -2.6642  -2.6107  -2.5438  -2.4777
    -2.4082  -2.2456  -2.1090  -2.0336  -1.8949  -1.6791  -1.6193  -1.5805
    -1.5145  -1.4899  -1.4287  -1.3295  -1.2788  -1.1701  -0.9878  -0.8379
    -0.7860  -0.7146  -0.6298  -0.6041  -0.5145  -0.4476  -0.4080  -0.3268
    -0.2760  -0.1837  -0.1154  -0.0689  -0.0230   0.0744   0.1053   0.1369
     0.2673   0.2873   0.3402   0.4396   0.5356   0.5798   0.6421   0.6694
     0.7162   0.8087   0.8677   0.9337   0.9521   0.9816   1.0577   1.0875
     1.1597   1.2090   1.2349   1.3354   1.3964   1.4289   1.5224   1.5641
     1.6391   1.6580   1.7021   1.7516   1.7669   1.8435   1.8883   1.9504
     1.9678   2.0168   2.0348   2.1438   2.1845   2.2017   2.2172   2.2652
     2.2773   2.3332   2.3833   2.3946   2.4288

          k =-0.5000 0.5000 0.2500 ( 84608 PWs)   bands (ev):

   -42.9324 -42.8488 -42.6806 -42.6610 -42.5304 -42.4471 -41.5274 -40.3408
   -23.8685 -23.8524 -23.8006 -23.7940 -23.7498 -23.7299 -23.6280 -23.6003
   -23.5940 -23.5706 -23.5697 -23.5585 -23.4840 -23.4341 -23.4331 -23.3998
   -23.3596 -23.3400 -22.4973 -22.4784 -22.4387 -21.4248 -21.3901 -21.3270
   -10.5888  -9.7827  -9.2896  -9.0412  -8.9157  -8.9104  -8.8043  -8.7722
    -8.7537  -8.6942  -8.6082  -8.4337  -7.9032  -7.6680  -6.6386  -4.4175
    -4.2710  -4.1918  -4.1297  -4.1033  -3.9402  -3.7502  -3.6664  -3.6041
    -3.5128  -3.4268  -3.3832  -3.3145  -3.1988  -3.1497  -3.1155  -2.9967
    -2.9280  -2.8799  -2.8346  -2.7679  -2.6579  -2.6189  -2.5687  -2.4886
    -2.4161  -2.2371  -2.0833  -1.9691  -1.9117  -1.7055  -1.6120  -1.5535
    -1.5080  -1.4774  -1.3863  -1.3485  -1.2707  -1.1709  -0.9868  -0.8296
    -0.8122  -0.7280  -0.6445  -0.6098  -0.5255  -0.4778  -0.4257  -0.3533
    -0.3146  -0.1834  -0.1235  -0.0442   0.0196   0.0496   0.1038   0.1558
     0.2019   0.3346   0.3902   0.4461   0.5470   0.5927   0.6240   0.6926
     0.7208   0.8110   0.8565   0.9181   0.9667   1.0003   1.0636   1.0897
     1.1386   1.1670   1.2454   1.2944   1.3187   1.3946   1.4874   1.5850
     1.6221   1.6618   1.7141   1.7713   1.8340   1.8559   1.9197   1.9902
     2.0152   2.0630   2.0966   2.1395   2.1447   2.2039   2.2420   2.2913
     2.3132   2.3408   2.3592   2.3900   2.4283

     the Fermi energy is     1.3489 ev

!    total energy              =   -3122.72166524 Ry

     total all-electron energy =    -36201.267579 Ry
     estimated scf accuracy    <       0.00001068 Ry
     smearing contrib. (-TS)   =       0.00004743 Ry
     internal energy E=F+TS    =   -3122.72171266 Ry

     The total energy is F=E-TS. E is the sum of the following terms:
     one-electron contribution =    -556.42741086 Ry
     hartree contribution      =     324.32667331 Ry
     xc contribution           =    -231.57195463 Ry
     ewald contribution        =    -474.25590371 Ry
     one-center paw contrib.   =   -2184.79311678 Ry

     convergence has been achieved in  12 iterations

     Forces acting on atoms (cartesian axes, Ry/au):

     atom    1 type  1   force =    -0.01890774   -0.03935734   -0.03143177
     atom    2 type  1   force =    -0.00730981    0.00363532    0.00116081
     atom    3 type  1   force =    -0.00178258    0.00424590   -0.02428836
     atom    4 type  1   force =     0.00994770   -0.00668358    0.00024246
     atom    5 type  1   force =     0.00049237    0.00226854   -0.00647215
     atom    6 type  1   force =     0.01280069   -0.01178316    0.01460717
     atom    7 type  1   force =     0.01045023   -0.00582693   -0.00170427
     atom    8 type  1   force =    -0.01287864    0.00716970    0.00370694
     atom    9 type  3   force =     0.00497418    0.01001250    0.00105994
     atom   10 type  3   force =    -0.00306095    0.01306980   -0.01214562
     atom   11 type  3   force =     0.01043380    0.00487023    0.00555274
     atom   12 type  3   force =    -0.02987580    0.00113173    0.01862602
     atom   13 type  2   force =    -0.00245508    0.00905537   -0.00202252
     atom   14 type  3   force =    -0.02141430   -0.00294864    0.01039967
     atom   15 type  3   force =     0.01267031    0.00717289    0.01710298
     atom   16 type  3   force =     0.00629240    0.00640670   -0.00718813
     atom   17 type  2   force =    -0.00363437   -0.00880763    0.00708374
     atom   18 type  3   force =    -0.01435041   -0.00891086   -0.00036767
     atom   19 type  2   force =     0.01681348    0.00722372   -0.00973590
     atom   20 type  3   force =    -0.02492690   -0.01005631   -0.02339614
     atom   21 type  2   force =    -0.02042921    0.01075491   -0.00114730
     atom   22 type  3   force =     0.00206823   -0.00794321    0.01046613
     atom   23 type  2   force =     0.02154664    0.00470750   -0.01958089
     atom   24 type  3   force =    -0.00128266    0.00327048   -0.00643314
     atom   25 type  3   force =     0.01047773   -0.00462816    0.00519136
     atom   26 type  3   force =    -0.00145091   -0.01072865    0.00877338
     atom   27 type  2   force =    -0.03501151    0.01228521   -0.00286280
     atom   28 type  2   force =     0.04094679    0.00562152   -0.00625276
     atom   29 type  3   force =     0.00260485   -0.00867541   -0.00284188
     atom   30 type  3   force =    -0.00289703   -0.00221766    0.01885585
     atom   31 type  3   force =    -0.00391261   -0.00105134    0.00535146
     atom   32 type  3   force =     0.00426554   -0.00831928    0.01040681
     atom   33 type  2   force =     0.00345210    0.02563242   -0.01427808
     atom   34 type  2   force =     0.03474006   -0.02726715    0.01248742
     atom   35 type  3   force =     0.00678654    0.01997980    0.00591615
     atom   36 type  2   force =    -0.00405981   -0.01340453   -0.00171453
     atom   37 type  3   force =    -0.00228270    0.00817626    0.00665167
     atom   38 type  2   force =     0.01555202    0.01866880    0.00446703
     atom   39 type  3   force =    -0.02292474    0.01652239   -0.00523484
     atom   40 type  3   force =     0.00508503    0.00111551    0.00600512
     atom   41 type  3   force =    -0.00004184    0.00273203    0.00257571
     atom   42 type  3   force =     0.00381168   -0.01669240   -0.00586928
     atom   43 type  3   force =    -0.03180378   -0.00403118    0.01664012
     atom   44 type  3   force =     0.00753237   -0.00366708   -0.00336584
     atom   45 type  3   force =     0.01378900   -0.00887159    0.00056380
     atom   46 type  3   force =    -0.01400538   -0.01188816    0.01381319
     atom   47 type  2   force =     0.00502409    0.00515409   -0.00879909
     atom   48 type  3   force =    -0.00232293    0.01159081    0.01721047
     atom   49 type  3   force =    -0.00101448    0.01563354    0.00762039
     atom   50 type  2   force =    -0.01024276   -0.00917336   -0.00860804
     atom   51 type  3   force =     0.00333611    0.00651755    0.00341620
     atom   52 type  2   force =     0.01072324    0.00638763   -0.00827266
     atom   53 type  2   force =     0.01547299   -0.01023536   -0.02047721
     atom   54 type  3   force =     0.00218878   -0.00784388   -0.00146388

     Total force =     0.160680     Total SCF correction =     0.005204


     Computing stress (Cartesian axis) and pressure

          total   stress  (Ry/bohr**3)                   (kbar)     P=      -43.22
  -0.00030506   0.00000468  -0.00000009          -44.88        0.69       -0.01
   0.00000468  -0.00029529   0.00001317            0.69      -43.44        1.94
  -0.00000009   0.00001317  -0.00028113           -0.01        1.94      -41.36

     Energy error            =      7.2E-02 Ry
     Gradient error          =      4.1E-02 Ry/Bohr

     number of scf cycles    =  20
     number of bfgs steps    =  19

     energy             old  =   -3122.6499726918 Ry
     energy             new  =   -3122.7216652382 Ry

     CASE: energy            _new < energy            _old

     new trust radius        =       0.3117555247 bohr
     new conv_thr            =       0.0000204734 Ry


ATOMIC_POSITIONS (crystal)
Ca            0.0045847276        0.0433742112        0.0271222375
Ca            0.4699572566        0.4949511619        0.5013037187
Ca            0.0072648006        0.5026024050        0.1916849338
Ca            0.0145423494        0.4782311595        0.7472004597
Ca            0.2427420388        0.0106847775        0.4866759082
Ca            0.7770290481       -0.0086497894        0.5223978930
Ca            0.5245119241        0.2348656039       -0.0051799481
Ca            0.4786768697        0.7673173210        0.0159781705
Al            0.1647667920        0.1231991498        0.1476762491
Al           -0.2289836467       -0.1917768172       -0.2445810614
Al            0.2178922081       -0.2451950190       -0.1502814815
Al           -0.1432038262        0.2066392897       -0.1830725677
P            -0.1740637206       -0.1741366764        0.1884088295
Al           -0.1236035283        0.1802080480        0.1589870522
Al            0.2265987442       -0.1767357866        0.1232347810
Al            0.1114516751        0.2118715514       -0.1758704535
P             0.0076596944        0.0799864141        0.2282513128
Al           -0.0274357321       -0.1363230742       -0.3296299209
P             0.2723367674       -0.0069095974        0.1137164301
Al           -0.3331729259       -0.0251958866       -0.1611978178
P             0.1047118196        0.2190844643        0.0046197680
Al           -0.0599452624       -0.2728091618        0.0529959811
P            -0.0159407777        0.1464850520       -0.2886453627
Al           -0.0252854293       -0.1278279356        0.2874113037
Al           -0.2600740636       -0.0372595841        0.1257685145
Al            0.3186545670       -0.0185188450       -0.0708342661
P             0.1286451909       -0.2705642821        0.0211890615
P            -0.1008819440        0.2307865648       -0.0166147519
Al            0.1914389494        0.5754525243        0.0000328979
Al            0.0077069138        0.2044549359        0.5462068819
Al            0.4527350790        0.0092673385        0.2787440111
Al            0.7830243701        0.4414875483        0.0330787926
P            -0.0399659340        0.7919183989        0.4933182763
P             0.4992243370       -0.0232056182        0.7317339015
Al            0.5015874586        0.7740348156        0.6639758552
P             0.4986698940       -0.8093046144       -0.6288859326
Al            0.5151378116       -0.7691498217        0.6466587500
P             0.4616440749        0.7822543212       -0.6213927410
Al            0.6330213461        0.4944158195        0.7233258625
Al           -0.5969094287        0.5599716023       -0.7494844247
Al            0.5984540754        0.4916055403       -0.7821368360
Al           -0.6473473818        0.5343926325        0.7296392035
Al            0.8285116027        0.7056837719        0.5523360782
Al           -0.7740241420       -0.6209417606        0.4993343208
Al           -0.7477916355        0.6758562851        0.5044250424
Al            0.7652539519       -0.6431587952        0.5357241491
P             0.6770577422        0.6718730376        0.6745282005
Al           -0.6328465596       -0.6994684202       -0.6305574031
Al            0.6027688920       -0.6776417368       -0.6638080224
P            -0.6645663177        0.7025805450       -0.6650588550
Al           -0.6895574627       -0.6677682156        0.6730374895
P            -0.6623071875        0.6926667782        0.6708686907
P             0.6859657390       -0.6683969197        0.6863229949
Al            0.6736781953        0.7327352884       -0.7206821573



     Writing output data file ./Ca8_Al31_P15.save/
     NEW-OLD atomic charge density approx. for the potential

     total cpu time spent up to now is   255847.0 secs

     Self-consistent Calculation

     iteration #  1     ecut=    45.00 Ry     beta= 0.15
     Davidson diagonalization with overlap
     c_bands:  4 eigenvalues not converged
     c_bands:  1 eigenvalues not converged
     c_bands:  1 eigenvalues not converged
     c_bands:  2 eigenvalues not converged
     c_bands:  1 eigenvalues not converged
     c_bands:  1 eigenvalues not converged
     c_bands:  4 eigenvalues not converged
     c_bands:  2 eigenvalues not converged
     c_bands:  3 eigenvalues not converged
     c_bands:  5 eigenvalues not converged
     c_bands:  3 eigenvalues not converged
     c_bands:  4 eigenvalues not converged
     c_bands:  2 eigenvalues not converged
     c_bands:  2 eigenvalues not converged
     c_bands:  1 eigenvalues not converged
     c_bands:  4 eigenvalues not converged
     c_bands:  3 eigenvalues not converged
