CRYSTAL
PRIMVEC
 -5.29973900000000 0.00000000000000 5.29973900000000
 0.00000000000000 5.29973900000000 5.29973900000000
 -5.29973900000000 5.29973900000000 0.00000000000000
PRIMCOORD
2 1
 14     0.00000000000000     0.00000000000000     0.00000000000000
 14     2.64986950000000     2.64986950000000     2.64986950000000
BEGIN_BLOCK_DATAGRID_3D
 data
 BEGIN_DATAGRID_3Dgrid#1
  65 65 65
  0.000000 0.000000 0.000000
  -5.299739 0.000000 5.299739
  0.000000 5.299739 5.299739
  -5.299739 5.299739 0.000000
   8.31624952e-06 9.05287605e-06 1.12448234e-05 1.48447750e-05 1.97383400e-05 2.57101544e-05 3.24250566e-05 3.94380184e-05 4.62363947e-05 5.23064646e-05 5.72076719e-05 6.06354291e-05 6.24572983e-05 6.27157886e-05 6.16005436e-05 5.94000392e-05 5.64461313e-05 5.30637143e-05 4.95336948e-05 4.60724212e-05 4.28263816e-05 3.98783556e-05 3.72603848e-05 3.49693971e-05 3.29824000e-05 3.12692945e-05 2.98022892e-05 2.85615716e-05 2.75374127e-05 2.67292904e-05 2.61429372e-05 2.57864116e-05 2.56663063e-05 2.57850524e-05 2.61399551e-05 2.67241833e-05 2.75294850e-05 2.85499820e-05 2.97860901e-05 3.12474490e-05 3.29537734e-05 3.49327277e-05 3.72142495e-05 3.98211547e-05 4.27563708e-05 4.59878190e-05 4.94328830e-05 5.29455315e-05 5.63102324e-05 5.92472649e-05 6.14332163e-05 6.25378432e-05 6.22741688e-05 6.04536518e-05 5.70342289e-05 5.21479594e-05 4.60982068e-05 3.93236099e-05 3.23355831e-05 2.56444771e-05 1.96934505e-05 1.48165557e-05 1.12289946e-05 9.04594066e-06 8.31624952e-06 
   9.05287605e-06 1.04368492e-05 1.31794856e-05 1.72151998e-05 2.23981446e-05 2.84725169e-05 3.50653320e-05 4.17108836e-05 4.79047978e-05 5.31750807e-05 5.71517634e-05 5.96174522e-05 6.05274756e-05 5.99975701e-05 5.82657056e-05 5.56400282e-05 5.24459275e-05 4.89825485e-05 4.54943811e-05 4.21587817e-05 3.90867937e-05 3.63329502e-05 3.39096279e-05 3.18023553e-05 2.99836172e-05 2.84237398e-05 2.70982346e-05 2.59915574e-05 2.50976859e-05 2.44182570e-05 2.39592450e-05 2.37272487e-05 2.37263797e-05 2.39565090e-05 2.44132796e-05 2.50898807e-05 2.59801701e-05 2.70823841e-05 2.84024433e-05 2.99557905e-05 3.17667913e-05 3.38649602e-05 3.62776243e-05 3.90190714e-05 4.20768072e-05 4.53963340e-05 4.88668942e-05 5.23117542e-05 5.54874300e-05 5.80961408e-05 5.98141055e-05 6.03348252e-05 5.94217438e-05 5.69600202e-05 5.29944704e-05 4.77417693e-05 4.15703563e-05 3.49501072e-05 2.83830471e-05 2.23327215e-05 1.71705339e-05 1.31515625e-05 1.04218908e-05 9.04821074e-06 9.05287605e-06 
   1.12448234e-05 1.31794856e-05 1.63614403e-05 2.06963428e-05 2.59977352e-05 3.19674629e-05 3.82032587e-05 4.42371013e-05 4.95969494e-05 5.38762724e-05 5.67933105e-05 5.82256358e-05 5.82134918e-05 5.69343533e-05 5.46581049e-05 5.16953136e-05 4.83501152e-05 4.48854702e-05 4.15038006e-05 3.83419515e-05 3.54769247e-05 3.29380323e-05 3.07215364e-05 2.88048600e-05 2.71585348e-05 2.57549520e-05 2.45736381e-05 2.36032644e-05 2.28409646e-05 2.22898054e-05 2.19553935e-05 2.18426049e-05 2.19532595e-05 2.22852911e-05 2.28335997e-05 2.35923916e-05 2.45584545e-05 2.57345390e-05 2.71318694e-05 2.87708011e-05 3.06787930e-05 3.28851271e-05 3.54121774e-05 3.82635079e-05 4.14097369e-05 4.47739905e-05 4.82198460e-05 5.15456710e-05 5.44896823e-05 5.67492484e-05 5.80154809e-05 5.80201105e-05 5.65869307e-05 5.36763483e-05 4.94106335e-05 4.40705332e-05 3.80608300e-05 3.18513643e-05 2.59078892e-05 2.06307486e-05 1.63168624e-05 1.31523457e-05 1.12321091e-05 1.05932503e-05 1.12448234e-05 
   1.48447749e-05 1.72151998e-05 2.06963427e-05 2.51557103e-05 3.03632456e-05 3.59857303e-05 4.16093424e-05 4.67883352e-05 5.11084797e-05 5.42488268e-05 5.60260746e-05 5.64116002e-05 5.55195014e-05 5.35717019e-05 5.08509144e-05 4.76531051e-05 4.42486522e-05 4.08571703e-05 3.76366993e-05 3.46848428e-05 3.20479414e-05 2.97342729e-05 2.77280237e-05 2.60018130e-05 2.45265067e-05 2.32777920e-05 2.22395199e-05 2.14042194e-05 2.07714762e-05 2.03450566e-05 2.01297106e-05 2.01285025e-05 2.03413119e-05 2.07648442e-05 2.13941485e-05 2.22252947e-05 2.32585678e-05 2.45013289e-05 2.59696139e-05 2.76875980e-05 2.96842414e-05 3.19867196e-05 3.46106415e-05 3.75475832e-05 4.07511999e-05 4.41241226e-05 4.75088734e-05 5.06867823e-05 5.33887889e-05 5.53205227e-05 5.62009597e-05 5.58097008e-05 5.40337292e-05 5.09020631e-05 4.65975781e-05 4.14399905e-05 3.58416718e-05 3.02462043e-05 2.50653296e-05 2.06306469e-05 1.71713344e-05 1.48198672e-05 1.36376511e-05 1.36456985e-05 1.48447749e-05 
   1.97383399e-05 2.23981445e-05 2.59977351e-05 3.03632456e-05 3.52274704e-05 4.02391216e-05 4.49974366e-05 4.91054971e-05 5.22289237e-05 5.41447634e-05 5.47686923e-05 5.41554652e-05 5.24751338e-05 4.99733347e-05 4.69263865e-05 4.36009646e-05 4.02248114e-05 3.69708687e-05 3.39537673e-05 3.12355196e-05 2.88366181e-05 2.67491303e-05 2.49492677e-05 2.34078574e-05 2.20979300e-05 2.09992250e-05 2.00998419e-05 1.93955758e-05 1.88876948e-05 1.85800145e-05 1.84761034e-05 1.85773090e-05 1.88820537e-05 1.93865584e-05 2.00868290e-05 2.09814540e-05 2.20745206e-05 2.33778194e-05 2.49114861e-05 2.67023337e-05 2.87793420e-05 3.11660860e-05 3.38703061e-05 3.68714071e-05 4.01074512e-05 4.34641543e-05 4.67692692e-05 4.97961298e-05 5.22794786e-05 5.39446316e-05 5.45475954e-05 5.39197086e-05 5.20070919e-05 4.88942294e-05 4.48034387e-05 4.00677418e-05 3.50822006e-05 3.02455549e-05 2.59072722e-05 2.23332624e-05 1.96968242e-05 1.80922484e-05 1.75604574e-05 1.81124135e-05 1.97383399e-05 
   2.57101544e-05 2.84725168e-05 3.19674629e-05 3.59857303e-05 4.02391216e-05 4.43823922e-05 4.80547206e-05 5.09312705e-05 5.27716487e-05 5.34530078e-05 5.29804184e-05 5.14738667e-05 4.91373237e-05 4.62189283e-05 4.29717581e-05 3.96224819e-05 3.63516727e-05 3.32860853e-05 3.05007266e-05 2.80273948e-05 2.58663419e-05 2.39983632e-05 2.23954887e-05 2.10292498e-05 1.98761174e-05 1.89201642e-05 1.81533375e-05 1.75739650e-05 1.71842509e-05 1.69875485e-05 1.69861077e-05 1.71798165e-05 1.75662102e-05 1.81417456e-05 1.89040618e-05 1.98547044e-05 2.10016154e-05 2.23606083e-05 2.39550752e-05 2.58133123e-05 2.79630854e-05 3.04233885e-05 3.31938043e-05 3.62424876e-05 3.94945925e-05 4.28238200e-05 4.60504083e-05 4.89488642e-05 5.12675836e-05 5.27600509e-05 5.32238486e-05 5.25402221e-05 5.07047774e-05 4.78403307e-05 4.41865083e-05 4.00667618e-05 3.58401549e-05 3.18501236e-05 2.83833311e-05 2.56480356e-05 2.37742161e-05 2.28297928e-05 2.28418084e-05 2.38107032e-05 2.57101544e-05 
   3.24250565e-05 3.50653319e-05 3.82032586e-05 4.16093424e-05 4.49974365e-05 4.80547206e-05 5.04839494e-05 5.20476323e-05 5.26028497e-05 5.21182900e-05 5.06704544e-05 4.84217293e-05 4.55872134e-05 4.23987615e-05 3.90736752e-05 3.57927519e-05 3.26892085e-05 2.98473613e-05 2.73084162e-05 2.50802925e-05 2.31487720e-05 2.14879796e-05 2.00689705e-05 1.88658286e-05 1.78591632e-05 1.70372373e-05 1.63952148e-05 1.59331765e-05 1.56536141e-05 1.55590823e-05 1.56505555e-05 1.59268460e-05 1.63852027e-05 1.70229654e-05 1.78399164e-05 1.88407775e-05 2.00371788e-05 2.14483919e-05 2.31001844e-05 2.50213183e-05 2.72374625e-05 2.97626398e-05 3.25888033e-05 3.56747649e-05 3.89364562e-05 4.22412155e-05 4.54091490e-05 4.82241939e-05 5.04559811e-05 5.18909812e-05 5.23682432e-05 5.18123337e-05 5.02550697e-05 4.78392064e-05 4.48014162e-05 4.14376174e-05 3.80590390e-05 3.49502628e-05 3.23395141e-05 3.03868164e-05 2.91889631e-05 2.87942397e-05 2.92169459e-05 3.04432456e-05 3.24250565e-05 
   3.94380182e-05 4.17108834e-05 4.42371012e-05 4.67883351e-05 4.91054970e-05 5.09312704e-05 5.20476322e-05 5.23089376e-05 5.16622564e-05 5.01504550e-05 4.78984358e-05 4.50871899e-05 4.19226306e-05 3.86061617e-05 3.53120991e-05 3.21743683e-05 2.92823574e-05 2.66840477e-05 2.43937939e-05 2.24021805e-05 2.06859131e-05 1.92163752e-05 1.79660979e-05 1.69128757e-05 1.60416215e-05 1.53443153e-05 1.48185811e-05 1.44655156e-05 1.42873993e-05 1.42858359e-05 1.44607221e-05 1.48102557e-05 1.53319799e-05 1.60246504e-05 1.68905231e-05 1.79375132e-05 1.91806023e-05 2.06418712e-05 2.23486329e-05 2.43293175e-05 2.66070214e-05 2.91909901e-05 3.20667891e-05 3.51865228e-05 3.84611338e-05 4.17573338e-05 4.49017761e-05 4.76943224e-05 4.99305185e-05 5.14308583e-05 5.20717433e-05 5.18112237e-05 5.07026033e-05 4.88912902e-05 4.65945071e-05 4.40683597e-05 4.15705403e-05 3.93280508e-05 3.75171428e-05 3.62579190e-05 3.56205679e-05 3.56362713e-05 3.63050833e-05 3.75958241e-05 3.94380182e-05 
   4.62363945e-05 4.79047976e-05 4.95969493e-05 5.11084796e-05 5.22289236e-05 5.27716486e-05 5.26028497e-05 5.16622563e-05 4.99705185e-05 4.76220636e-05 4.47660771e-05 4.15808863e-05 3.82477760e-05 3.49292642e-05 3.17548011e-05 2.88145781e-05 2.61603447e-05 2.38111469e-05 2.17616897e-05 1.99913437e-05 1.84723625e-05 1.71764413e-05 1.60792240e-05 1.51627214e-05 1.44158778e-05 1.38337025e-05 1.34154991e-05 1.31627563e-05 1.30772197e-05 1.31595624e-05 1.34089161e-05 1.38233541e-05 1.44012320e-05 1.51431179e-05 1.60538963e-05 1.71445258e-05 1.84328899e-05 1.99432169e-05 2.17036533e-05 2.37417638e-05 2.60779973e-05 2.87175140e-05 3.16412412e-05 3.47975829e-05 3.80967505e-05 4.14099943e-05 4.45758011e-05 4.74141459e-05 4.97481039e-05 5.14298714e-05 5.23661938e-05 5.25372094e-05 5.20034721e-05 5.08985293e-05 4.94082776e-05 4.77421126e-05 4.61031943e-05 4.46649682e-05 4.35583633e-05 4.28698908e-05 4.26468895e-05 4.29041078e-05 4.36265143e-05 4.47663400e-05 4.62363945e-05 
   5.23064645e-05 5.31750805e-05 5.38762723e-05 5.42488267e-05 5.41447633e-05 5.34530077e-05 5.21182899e-05 5.01504550e-05 4.76220636e-05 4.46553577e-05 4.14022435e-05 3.80221514e-05 3.46623260e-05 3.14436685e-05 2.84533844e-05 2.57440097e-05 2.33373018e-05 2.12310633e-05 1.94070801e-05 1.78387564e-05 1.64975149e-05 1.53574707e-05 1.43982389e-05 1.36060026e-05 1.29731537e-05 1.24969466e-05 1.21776504e-05 1.20166781e-05 1.20150977e-05 1.21728153e-05 1.24885824e-05 1.29608243e-05 1.35891359e-05 1.43761521e-05 1.53293863e-05 1.64625640e-05 1.77959660e-05 1.93553491e-05 2.11691363e-05 2.32637549e-05 2.56572650e-05 2.83517710e-05 3.13255443e-05 3.45262652e-05 3.78671905e-05 4.12281608e-05 4.44629455e-05 4.74133402e-05 4.99287635e-05 5.18882443e-05 5.32202719e-05 5.39156860e-05 5.40299844e-05 5.36739969e-05 5.29950507e-05 5.21534227e-05 5.12999770e-05 5.05599302e-05 5.00250126e-05 4.97530056e-05 4.97711270e-05 5.00790801e-05 5.06490052e-05 5.14223520e-05 5.23064645e-05 
   5.72076717e-05 5.71517632e-05 5.67933103e-05 5.60260745e-05 5.47686922e-05 5.29804183e-05 5.06704544e-05 4.78984357e-05 4.47660771e-05 4.14022435e-05 3.79450926e-05 3.45251164e-05 3.12520544e-05 2.82072266e-05 2.54413802e-05 2.29770681e-05 2.08140327e-05 1.89360091e-05 1.73176202e-05 1.59304222e-05 1.47475494e-05 1.37467388e-05 1.29117704e-05 1.22325437e-05 1.17041417e-05 1.13252914e-05 1.10966437e-05 1.10192479e-05 1.10935157e-05 1.13188594e-05 1.16940660e-05 1.22183427e-05 1.28928452e-05 1.37223949e-05 1.47170076e-05 1.58928178e-05 1.72719874e-05 1.88812589e-05 2.07489328e-05 2.29002386e-05 2.53513205e-05 2.81023894e-05 3.11309755e-05 3.43866030e-05 3.77884584e-05 4.12275642e-05 4.45744278e-05 4.76920627e-05 5.04528377e-05 5.27561960e-05 5.45434412e-05 5.58059729e-05 5.65847294e-05 5.69608544e-05 5.70400083e-05 5.69344194e-05 5.67470313e-05 5.65608355e-05 5.64342163e-05 5.64008472e-05 5.64713677e-05 5.66342688e-05 5.68549650e-05 5.70740995e-05 5.72076717e-05 
   6.06354289e-05 5.96174520e-05 5.82256356e-05 5.64116001e-05 5.41554650e-05 5.14738666e-05 4.84217292e-05 4.50871898e-05 4.15808863e-05 3.80221514e-05 3.45251164e-05 3.11873237e-05 2.80824514e-05 2.52575851e-05 2.27344956e-05 2.05137878e-05 1.85806124e-05 1.69107496e-05 1.54761691e-05 1.42494909e-05 1.32070745e-05 1.23307026e-05 1.16080042e-05 1.10318881e-05 1.05993259e-05 1.03098442e-05 1.01640632e-05 1.01625591e-05 1.03052484e-05 1.05913933e-05 1.10202282e-05 1.15921035e-05 1.23099476e-05 1.31807693e-05 1.42168645e-05 1.54363714e-05 1.68628359e-05 1.85235249e-05 2.04463430e-05 2.26553897e-05 2.51654324e-05 2.79758664e-05 3.10650548e-05 3.43862281e-05 3.78662429e-05 4.14083195e-05 4.48992916e-05 4.82209270e-05 5.12637228e-05 5.39405885e-05 5.61974359e-05 5.80181573e-05 5.94227976e-05 6.04595327e-05 6.11927329e-05 6.16902851e-05 6.20131225e-05 6.22086698e-05 6.23082171e-05 6.23268427e-05 6.22640156e-05 6.21035942e-05 6.18132286e-05 6.13444656e-05 6.06354289e-05 
   6.24572980e-05 6.05274754e-05 5.82134916e-05 5.55195012e-05 5.24751336e-05 4.91373236e-05 4.55872133e-05 4.19226305e-05 3.82477760e-05 3.46623260e-05 3.12520544e-05 2.80824514e-05 2.51959389e-05 2.26124656e-05 2.03326911e-05 1.83427280e-05 1.66194248e-05 1.51353745e-05 1.38630850e-05 1.27780120e-05 1.18603704e-05 1.10958111e-05 1.04751679e-05 9.99354980e-06 9.64907948e-06 9.44156887e-06 9.37138203e-06 9.43867614e-06 9.64313875e-06 9.98426075e-06 1.04621033e-05 1.10784386e-05 1.18380734e-05 1.27501035e-05 1.38288126e-05 1.50939147e-05 1.65698701e-05 1.82840730e-05 2.02638279e-05 2.25321982e-05 2.51030305e-05 2.79757107e-05 3.11304682e-05 3.45252299e-05 3.80950529e-05 4.17549093e-05 4.54060374e-05 4.89452548e-05 5.22757645e-05 5.53173598e-05 5.80138432e-05 6.03360415e-05 6.22799280e-05 6.38606829e-05 6.51045685e-05 6.60408617e-05 6.66956493e-05 6.70882712e-05 6.72300701e-05 6.71243813e-05 6.67666887e-05 6.61445010e-05 6.52374007e-05 6.40183475e-05 6.24572980e-05 
   6.27157883e-05 5.99975699e-05 5.69343531e-05 5.35717018e-05 4.99733345e-05 4.62189282e-05 4.23987614e-05 3.86061617e-05 3.49292641e-05 3.14436685e-05 2.82072266e-05 2.52575851e-05 2.26124655e-05 2.02721678e-05 1.82235132e-05 1.64443985e-05 1.49082442e-05 1.35878179e-05 1.24581248e-05 1.14982543e-05 1.06922243e-05 1.00289785e-05 9.50175697e-06 9.10708949e-06 8.84365622e-06 8.71123064e-06 8.70987748e-06 8.83952398e-06 9.09996454e-06 9.49129790e-06 1.00147350e-05 1.06736575e-05 1.14747554e-05 1.24290264e-05 1.35523972e-05 1.48657182e-05 1.63939140e-05 1.81641391e-05 2.02028975e-05 2.25322397e-05 2.51653434e-05 2.81019960e-05 3.13246885e-05 3.47961443e-05 3.84590558e-05 4.22385373e-05 4.60473046e-05 4.97929577e-05 5.33861398e-05 5.67479972e-05 5.98154472e-05 6.25433033e-05 6.49031721e-05 6.68799176e-05 6.84670596e-05 6.96625313e-05 7.04657563e-05 7.08762720e-05 7.08934684e-05 7.05167285e-05 6.97454559e-05 6.85789895e-05 6.70169229e-05 6.50605393e-05 6.27157883e-05 
   6.16005434e-05 5.82657054e-05 5.46581047e-05 5.08509142e-05 4.69263864e-05 4.29717580e-05 3.90736751e-05 3.53120990e-05 3.17548010e-05 2.84533844e-05 2.54413802e-05 2.27344955e-05 2.03326911e-05 1.82235132e-05 1.63860239e-05 1.47947275e-05 1.34230293e-05 1.22459345e-05 1.12418617e-05 1.03935835e-05 9.68841152e-06 9.11780556e-06 8.67661085e-06 8.36212736e-06 8.17319011e-06 8.10940692e-06 8.17065955e-06 8.35693318e-06 8.66849500e-06 9.10639950e-06 9.67325487e-06 1.03741430e-05 1.12175473e-05 1.22161091e-05 1.33870118e-05 1.47517896e-05 1.63353843e-05 1.81643356e-05 2.02640931e-05 2.26555765e-05 2.53512761e-05 2.83513530e-05 3.16403374e-05 3.51850758e-05 3.89344927e-05 4.28214854e-05 4.67668694e-05 5.06848277e-05 5.44889322e-05 5.80976376e-05 6.14383000e-05 6.44492148e-05 6.70797602e-05 6.92892563e-05 7.10454062e-05 7.23230831e-05 7.31038464e-05 7.33761032e-05 7.31355133e-05 7.23852072e-05 7.11356367e-05 6.94042360e-05 6.72153216e-05 6.46006256e-05 6.16005434e-05 
   5.94000389e-05 5.56400280e-05 5.16953134e-05 4.76531049e-05 4.36009645e-05 3.96224818e-05 3.57927518e-05 3.21743682e-05 2.88145780e-05 2.57440097e-05 2.29770681e-05 2.05137878e-05 1.83427279e-05 1.64443985e-05 1.47947275e-05 1.33681705e-05 1.21401966e-05 1.10890254e-05 1.01966090e-05 9.44895100e-06 8.83590892e-06 8.35065237e-06 7.98894465e-06 7.74839480e-06 7.62779741e-06 7.62664673e-06 7.74488167e-06 7.98288930e-06 8.34176644e-06 8.82381053e-06 9.43318240e-06 1.01766540e-05 1.10643235e-05 1.21101523e-05 1.33321566e-05 1.47520847e-05 1.63944332e-05 1.82847160e-05 2.04469879e-05 2.29007529e-05 2.56575202e-05 2.87174028e-05 3.20662470e-05 3.56737969e-05 3.94933039e-05 4.34627865e-05 4.75078434e-05 5.15456101e-05 5.54892157e-05 5.92520382e-05 6.27511973e-05 6.59100365e-05 6.86596963e-05 7.09401420e-05 7.27010686e-05 7.39029563e-05 7.45182831e-05 7.45326501e-05 7.39454819e-05 7.27700643e-05 7.10329164e-05 6.87727302e-05 6.60392098e-05 6.28920490e-05 5.94000389e-05 
   5.64461311e-05 5.24459273e-05 4.83501151e-05 4.42486520e-05 4.02248112e-05 3.63516726e-05 3.26892083e-05 2.92823573e-05 2.61603446e-05 2.33373018e-05 2.08140326e-05 1.85806123e-05 1.66194248e-05 1.49082442e-05 1.34230293e-05 1.21401966e-05 1.10382570e-05 1.00988005e-05 9.30690416e-06 8.65108505e-06 8.12294810e-06 7.71666820e-06 7.42842736e-06 7.25589749e-06 7.19783228e-06 7.25380873e-06 7.42414069e-06 7.70997127e-06 8.11353637e-06 8.63857662e-06 9.29085620e-06 1.00787252e-05 1.10136343e-05 1.21104836e-05 1.33876643e-05 1.48666491e-05 1.65710068e-05 1.85247712e-05 2.07501775e-05 2.32648831e-05 2.60789052e-05 2.91916037e-05 3.25891009e-05 3.62425273e-05 4.01074024e-05 4.41243005e-05 4.82207461e-05 5.23140827e-05 5.63149247e-05 6.01307842e-05 6.36695623e-05 6.68427667e-05 6.95684820e-05 7.17741986e-05 7.33995658e-05 7.43989972e-05 7.47438978e-05 7.44241997e-05 7.34489353e-05 7.18457381e-05 6.96593748e-05 6.69495721e-05 6.37884476e-05 6.02577720e-05 5.64461311e-05 
   5.30637141e-05 4.89825483e-05 4.48854700e-05 4.08571701e-05 3.69708686e-05 3.32860851e-05 2.98473612e-05 2.66840477e-05 2.38111468e-05 2.12310633e-05 1.89360090e-05 1.69107496e-05 1.51353745e-05 1.35878179e-05 1.22459345e-05 1.10890254e-05 1.00988005e-05 9.25983858e-06 8.55965310e-06 7.98849419e-06 7.53900855e-06 7.20585757e-06 6.98536261e-06 6.87521887e-06 6.87429883e-06 6.98255392e-06 7.20101698e-06 7.53190539e-06 7.97882162e-06 8.54704211e-06 9.24387312e-06 1.00790320e-05 1.10649847e-05 1.22171412e-05 1.35537857e-05 1.50956158e-05 1.68647802e-05 1.88833577e-05 2.11712899e-05 2.37438730e-05 2.66090031e-05 2.97644455e-05 3.31954434e-05 3.68729745e-05 4.07529067e-05 4.47761945e-05 4.88701291e-05 5.29505268e-05 5.69246626e-05 6.06947369e-05 6.41616954e-05 6.72292773e-05 6.98081940e-05 7.18203137e-05 7.32026465e-05 7.39108258e-05 7.39217262e-05 7.32348904e-05 7.18725634e-05 6.98783329e-05 6.73145669e-05 6.42589712e-05 6.08006239e-05 5.70357886e-05 5.30637141e-05 
   4.95336945e-05 4.54943809e-05 4.15038005e-05 3.76366991e-05 3.39537671e-05 3.05007264e-05 2.73084161e-05 2.43937938e-05 2.17616896e-05 1.94070801e-05 1.73176202e-05 1.54761691e-05 1.38630849e-05 1.24581248e-05 1.12418617e-05 1.01966090e-05 9.30690415e-06 8.55965310e-06 7.94405040e-06 7.45138661e-06 7.07482910e-06 6.80923016e-06 6.65098583e-06 6.59794703e-06 6.64937374e-06 6.80592244e-06 7.06966271e-06 7.44412673e-06 7.93440126e-06 8.54727092e-06 9.29141084e-06 1.01776053e-05 1.12189386e-05 1.24308724e-05 1.38310994e-05 1.54390581e-05 1.72750096e-05 1.93586248e-05 2.17070910e-05 2.43328281e-05 2.72409740e-05 3.04268653e-05 3.38737723e-05 3.75511492e-05 4.14136275e-05 4.54009155e-05 4.94386842e-05 5.34404430e-05 5.73103412e-05 6.09467931e-05 6.42467888e-05 6.71107163e-05 6.94474618e-05 7.11794707e-05 7.22473757e-05 7.26137483e-05 7.22655645e-05 7.12150828e-05 6.94990265e-05 6.71761728e-05 6.43236412e-05 6.10322894e-05 5.74016567e-05 5.35348503e-05 4.95336945e-05 
   4.60724210e-05 4.21587815e-05 3.83419513e-05 3.46848426e-05 3.12355194e-05 2.80273947e-05 2.50802924e-05 2.24021804e-05 1.99913437e-05 1.78387563e-05 1.59304222e-05 1.42494908e-05 1.27780119e-05 1.14982542e-05 1.03935835e-05 9.44895098e-06 8.65108504e-06 7.98849418e-06 7.45138661e-06 7.03158477e-06 6.72248024e-06 6.51904012e-06 6.41785035e-06 6.41716853e-06 6.51695934e-06 6.71889614e-06 7.02632871e-06 7.44423329e-06 7.97917161e-06 8.63928612e-06 9.43434569e-06 1.03758306e-05 1.14770120e-05 1.27529465e-05 1.42202831e-05 1.58967746e-05 1.78003997e-05 1.99480479e-05 2.23537709e-05 2.50266743e-05 2.79685858e-05 3.11716927e-05 3.46163737e-05 3.82694677e-05 4.20832045e-05 4.59949938e-05 4.99282104e-05 5.37940560e-05 5.74945071e-05 6.09262792e-05 6.39856558e-05 6.65739220e-05 6.86030454e-05 7.00011415e-05 7.07172132e-05 7.07246634e-05 7.00231773e-05 6.86387477e-05 6.66218418e-05 6.40439280e-05 6.09927627e-05 5.75669342e-05 5.38701772e-05 5.00059187e-05 4.60724210e-05 
   4.28263814e-05 3.90867935e-05 3.54769246e-05 3.20479412e-05 2.88366180e-05 2.58663418e-05 2.31487719e-05 2.06859130e-05 1.84723624e-05 1.64975148e-05 1.47475493e-05 1.32070745e-05 1.18603703e-05 1.06922243e-05 9.68841149e-06 8.83590890e-06 8.12294809e-06 7.53900854e-06 7.07482910e-06 6.72248024e-06 6.47550241e-06 6.32908511e-06 6.28024361e-06 6.32794809e-06 6.47317160e-06 6.71884456e-06 7.06972804e-06 7.53223914e-06 8.11427377e-06 8.82506941e-06 9.67513341e-06 1.06762311e-05 1.18413917e-05 1.31848538e-05 1.47218506e-05 1.64681285e-05 1.84391126e-05 2.06486671e-05 2.31074546e-05 2.58209553e-05 2.87872686e-05 3.19948717e-05 3.54205496e-05 3.90277341e-05 4.27654920e-05 4.65683845e-05 5.03573755e-05 5.40419056e-05 5.75231572e-05 6.06984267e-05 6.34663949e-05 6.57329465e-05 6.74170749e-05 6.84563198e-05 6.88111758e-05 6.84679737e-05 6.74398961e-05 6.57660025e-05 6.35083821e-05 6.07477723e-05 5.75781336e-05 5.41007465e-05 5.04183802e-05 4.66300024e-05 4.28263814e-05 
   3.98783554e-05 3.63329500e-05 3.29380321e-05 2.97342728e-05 2.67491302e-05 2.39983630e-05 2.14879795e-05 1.92163751e-05 1.71764413e-05 1.53574706e-05 1.37467388e-05 1.23307026e-05 1.10958110e-05 1.00289785e-05 9.11780553e-06 8.35065235e-06 7.71666818e-06 7.20585756e-06 6.80923015e-06 6.51904012e-06 6.32908511e-06 6.23501079e-06 6.23455926e-06 6.32770876e-06 6.51667459e-06 6.80577122e-06 7.20116562e-06 7.71057424e-06 8.34296534e-06 9.10832043e-06 1.00174847e-05 1.10821005e-05 1.23145770e-05 1.37280162e-05 1.53359908e-05 1.71520713e-05 1.91890154e-05 2.14575721e-05 2.39649034e-05 2.67126830e-05 2.96949922e-05 3.28961850e-05 3.62889404e-05 3.98327467e-05 4.34730724e-05 4.71414615e-05 5.07567426e-05 5.42274648e-05 5.74555613e-05 6.03411059e-05 6.27878790e-05 6.47093151e-05 6.60342921e-05 6.67121757e-05 6.67165588e-05 6.60472600e-05 6.47303389e-05 6.28161260e-05 6.03755054e-05 5.74948860e-05 5.42704161e-05 5.08020321e-05 4.71878804e-05 4.35195432e-05 3.98783554e-05 
   3.72603846e-05 3.39096277e-05 3.07215363e-05 2.77280235e-05 2.49492676e-05 2.23954885e-05 2.00689704e-05 1.79660978e-05 1.60792239e-05 1.43982389e-05 1.29117703e-05 1.16080042e-05 1.04751679e-05 9.50175694e-06 8.67661083e-06 7.98894463e-06 7.42842734e-06 6.98536260e-06 6.65098582e-06 6.41785034e-06 6.28024361e-06 6.23455926e-06 6.27955441e-06 6.41644197e-06 6.64879959e-06 6.98231369e-06 7.42440847e-06 7.98383074e-06 8.67026452e-06 9.49403432e-06 1.04659245e-05 1.15971007e-05 1.28990775e-05 1.43836423e-05 1.60626282e-05 1.79474309e-05 2.00481888e-05 2.23725841e-05 2.49242765e-05 2.77010382e-05 3.06927192e-05 3.38792268e-05 3.72287479e-05 4.06964699e-05 4.42240614e-05 4.77401453e-05 5.11619379e-05 5.43981276e-05 5.73529400e-05 5.99311853e-05 6.20439305e-05 6.36143098e-05 6.45829007e-05 6.49120904e-05 6.45889277e-05 6.36261213e-05 6.20610619e-05 5.99529866e-05 5.73786264e-05 5.44268354e-05 5.11927812e-05 4.77722669e-05 4.42566736e-05 4.07288828e-05 3.72603846e-05 
   3.49693970e-05 3.18023551e-05 2.88048598e-05 2.60018129e-05 2.34078573e-05 2.10292497e-05 1.88658285e-05 1.69128756e-05 1.51627214e-05 1.36060025e-05 1.22325437e-05 1.10318881e-05 9.99354976e-06 9.10708946e-06 8.36212733e-06 7.74839478e-06 7.25589747e-06 6.87521885e-06 6.59794702e-06 6.41716852e-06 6.32794808e-06 6.32770876e-06 6.41644197e-06 6.59670794e-06 6.87342644e-06 7.25349742e-06 7.74532178e-06 8.35830808e-06 9.10244582e-06 9.98800197e-06 1.10253578e-05 1.22249571e-05 1.35972927e-05 1.51528312e-05 1.69017606e-05 1.88534600e-05 2.10156191e-05 2.33929813e-05 2.59857397e-05 2.87876770e-05 3.17841973e-05 3.49504537e-05 3.82498139e-05 4.16329235e-05 4.50376186e-05 4.83898925e-05 5.16060432e-05 5.45960122e-05 5.72677871e-05 5.95325925e-05 6.13104540e-05 6.25356199e-05 6.31612818e-05 6.31630696e-05 6.25409141e-05 6.13190525e-05 5.95441762e-05 5.72819443e-05 5.46122679e-05 5.16238911e-05 4.84088246e-05 4.50571517e-05 4.16526192e-05 3.82692915e-05 3.49693970e-05 
   3.29823998e-05 2.99836170e-05 2.71585346e-05 2.45265066e-05 2.20979298e-05 1.98761173e-05 1.78591631e-05 1.60416214e-05 1.44158778e-05 1.29731537e-05 1.17041417e-05 1.05993258e-05 9.64907944e-06 8.84365618e-06 8.17319008e-06 7.62779738e-06 7.19783226e-06 6.87429881e-06 6.64937373e-06 6.51695933e-06 6.47317159e-06 6.51667459e-06 6.64879959e-06 6.87342644e-06 7.19664945e-06 7.62628958e-06 8.17134144e-06 8.84145037e-06 9.64650022e-06 1.05963573e-05 1.17007684e-05 1.29693606e-05 1.44116510e-05 1.60369487e-05 1.78540361e-05 1.98705333e-05 2.20918953e-05 2.45200402e-05 2.71516708e-05 2.99764088e-05 3.29749211e-05 3.61172613e-05 3.93616763e-05 4.26541287e-05 4.59287536e-05 4.91094004e-05 5.21123150e-05 5.48498904e-05 5.72352835e-05 5.91875598e-05 6.06369248e-05 6.15295343e-05 6.18313810e-05 6.15308226e-05 6.06394597e-05 5.91912607e-05 5.72400355e-05 5.48555518e-05 5.21187249e-05 4.91163876e-05 4.59361450e-05 4.26617569e-05 3.93693861e-05 3.61249145e-05 3.29823998e-05 
   3.12692943e-05 2.84237397e-05 2.57549518e-05 2.32777918e-05 2.09992249e-05 1.89201641e-05 1.70372372e-05 1.53443152e-05 1.38337024e-05 1.24969466e-05 1.13252914e-05 1.03098441e-05 9.44156883e-06 8.71123060e-06 8.10940688e-06 7.62664670e-06 7.25380871e-06 6.98255390e-06 6.80592243e-06 6.71889613e-06 6.71884455e-06 6.80577121e-06 6.98231369e-06 7.25349741e-06 7.62628958e-06 8.10903624e-06 8.71088486e-06 9.44129095e-06 1.03096792e-05 1.13252839e-05 1.24971375e-05 1.38341269e-05 1.53450012e-05 1.70382049e-05 1.89214270e-05 2.10007911e-05 2.32796655e-05 2.57571339e-05 2.84262279e-05 3.12720808e-05 3.42702140e-05 3.73851917e-05 4.05698909e-05 4.37656015e-05 4.69031181e-05 4.99048944e-05 5.26882219e-05 5.51692806e-05 5.72677871e-05 5.89118749e-05 6.00427706e-05 6.06188133e-05 6.06184046e-05 6.00415672e-05 5.89099433e-05 5.72652298e-05 5.51662265e-05 5.26848135e-05 4.99012753e-05 4.68994224e-05 4.37619453e-05 4.05663680e-05 3.73818721e-05 3.42671459e-05 3.12692943e-05 
   2.98022890e-05 2.70982344e-05 2.45736380e-05 2.22395198e-05 2.00998418e-05 1.81533374e-05 1.63952147e-05 1.48185810e-05 1.34154990e-05 1.21776503e-05 1.10966436e-05 1.01640631e-05 9.37138199e-06 8.70987744e-06 8.17065952e-06 7.74488164e-06 7.42414067e-06 7.20101696e-06 7.06966270e-06 7.02632870e-06 7.06972803e-06 7.20116561e-06 7.42440847e-06 7.74532177e-06 8.17134144e-06 8.71088486e-06 9.37280965e-06 1.01660124e-05 1.10992173e-05 1.21809469e-05 1.34196075e-05 1.48235766e-05 1.64011565e-05 1.81602666e-05 2.01077821e-05 2.22484774e-05 2.45836004e-05 2.71091681e-05 2.98141343e-05 3.26786334e-05 3.56725340e-05 3.87545414e-05 4.18720651e-05 4.49620051e-05 4.79525302e-05 5.07658180e-05 5.33216218e-05 5.55414348e-05 5.73529400e-05 5.86943876e-05 5.95185164e-05 5.97956616e-05 5.95157489e-05 5.86889779e-05 5.73451273e-05 5.55315505e-05 5.33100614e-05 5.07530093e-05 4.79389030e-05 4.49479642e-05 4.18579711e-05 3.87406989e-05 3.56591875e-05 3.26659698e-05 2.98022890e-05 
   2.85615714e-05 2.59915572e-05 2.36032642e-05 2.14042192e-05 1.93955757e-05 1.75739649e-05 1.59331764e-05 1.44655155e-05 1.31627562e-05 1.20166781e-05 1.10192478e-05 1.01625591e-05 9.43867609e-06 8.83952394e-06 8.35693315e-06 7.98288927e-06 7.70997124e-06 7.53190537e-06 7.44412671e-06 7.44423328e-06 7.53223913e-06 7.71057423e-06 7.98383073e-06 8.35830807e-06 8.84145037e-06 9.44129095e-06 1.01660124e-05 1.10236956e-05 1.20222744e-05 1.31696453e-05 1.44738250e-05 1.59430119e-05 1.75854070e-05 1.94086778e-05 2.14190064e-05 2.36197305e-05 2.60096617e-05 2.85812304e-05 3.13186658e-05 3.41964487e-05 3.71782838e-05 4.02168083e-05 4.32541867e-05 4.62236566e-05 4.90519808e-05 5.16626646e-05 5.39797153e-05 5.59316664e-05 5.74555613e-05 5.85005931e-05 5.90311184e-05 5.90288078e-05 5.84937625e-05 5.74445049e-05 5.59168459e-05 5.39617208e-05 5.16421677e-05 4.90296853e-05 4.62002524e-05 4.32303125e-05 4.01930250e-05 3.71550601e-05 3.41741572e-05 3.12975891e-05 2.85615714e-05 
   2.75374125e-05 2.50976857e-05 2.28409645e-05 2.07714760e-05 1.88876947e-05 1.71842507e-05 1.56536140e-05 1.42873992e-05 1.30772196e-05 1.20150977e-05 1.10935156e-05 1.03052483e-05 9.64313870e-06 9.09996450e-06 8.66849496e-06 8.34176641e-06 8.11353634e-06 7.97882159e-06 7.93440124e-06 7.97917159e-06 8.11427375e-06 8.34296533e-06 8.67026451e-06 9.10244581e-06 9.64650022e-06 1.03096792e-05 1.10992173e-05 1.20222744e-05 1.30860685e-05 1.42981010e-05 1.56663259e-05 1.71991005e-05 1.89047771e-05 2.07908503e-05 2.28626500e-05 2.51216564e-05 2.75635874e-05 3.01764764e-05 3.29389972e-05 3.58192987e-05 3.87745813e-05 4.17515705e-05 4.46879410e-05 4.75146259e-05 5.01588377e-05 5.25475553e-05 5.46111920e-05 5.62871700e-05 5.75231571e-05 5.82797706e-05 5.85326027e-05 5.82734693e-05 5.75108238e-05 5.62693202e-05 5.45885443e-05 5.25209737e-05 5.01292664e-05 4.74830248e-05 4.46552286e-05 4.17185786e-05 3.87420265e-05 3.57877679e-05 3.29089479e-05 3.01482469e-05 2.75374125e-05 
   2.67292902e-05 2.44182568e-05 2.22898052e-05 2.03450565e-05 1.85800143e-05 1.69875483e-05 1.55590822e-05 1.42858358e-05 1.31595624e-05 1.21728153e-05 1.13188593e-05 1.05913932e-05 9.98426071e-06 9.49129786e-06 9.10639947e-06 8.82381049e-06 8.63857659e-06 8.54704209e-06 8.54727090e-06 8.63928610e-06 8.82506940e-06 9.10832042e-06 9.49403431e-06 9.98800196e-06 1.05963573e-05 1.13252839e-05 1.21809469e-05 1.31696453e-05 1.42981010e-05 1.55737383e-05 1.70047740e-05 1.85999531e-05 2.03678126e-05 2.23154385e-05 2.44467754e-05 2.67606392e-05 2.92486621e-05 3.18934508e-05 3.46672511e-05 3.75313801e-05 4.04366010e-05 4.33244964e-05 4.61297498e-05 4.87831222e-05 5.12148214e-05 5.33579410e-05 5.51516798e-05 5.65441287e-05 5.74945070e-05 5.79748048e-05 5.79708454e-05 5.74827972e-05 5.65251599e-05 5.51262253e-05 5.33269943e-05 5.11795196e-05 4.87446654e-05 4.60893243e-05 4.32832099e-05 4.03954346e-05 3.74911595e-05 3.46286367e-05 3.18569428e-05 2.92146167e-05 2.67292902e-05 